# vtk DataFile Version 1.0
2D Simulation C++
ASCII
DATASET UNSTRUCTURED_GRID
FIELD FieldData 1
NODES 1 2 int
3288 6374

POINTS 3288 double
0.0 0.0 0.0
3.0 0.0 0.0
3.0 2.0 0.0
0.0 2.0 0.0
0.0 0.0500000007451 0.0
0.0 0.10000000149 0.0
0.0 0.15000000596 0.0
0.0 0.20000000298 0.0
0.0 0.25 0.0
0.0 0.300000011921 0.0
0.0 0.34999999404 0.0
0.0 0.40000000596 0.0
0.0 0.449999988079 0.0
0.0 0.5 0.0
0.0 0.550000011921 0.0
0.0 0.600000023842 0.0
0.0 0.649999976158 0.0
0.0 0.699999988079 0.0
0.0 0.75 0.0
0.0 0.800000011921 0.0
0.0 0.850000023842 0.0
0.0 0.899999976158 0.0
0.0 0.949999988079 0.0
0.0 1.0 0.0
0.0 1.04999995232 0.0
0.0 1.10000002384 0.0
0.0 1.14999997616 0.0
0.0 1.20000004768 0.0
0.0 1.25 0.0
0.0 1.29999995232 0.0
0.0 1.35000002384 0.0
0.0 1.39999997616 0.0
0.0 1.45000004768 0.0
0.0 1.5 0.0
0.0 1.54999995232 0.0
0.0 1.60000002384 0.0
0.0 1.64999997616 0.0
0.0 1.70000004768 0.0
0.0 1.75 0.0
0.0 1.79999995232 0.0
0.0 1.85000002384 0.0
0.0 1.89999997616 0.0
0.0 1.95000004768 0.0
0.0500000007451 2.0 0.0
0.10000000149 2.0 0.0
0.15000000596 2.0 0.0
0.20000000298 2.0 0.0
0.25 2.0 0.0
0.300000011921 2.0 0.0
0.34999999404 2.0 0.0
0.40000000596 2.0 0.0
0.449999988079 2.0 0.0
0.5 2.0 0.0
0.550000011921 2.0 0.0
0.600000023842 2.0 0.0
0.649999976158 2.0 0.0
0.699999988079 2.0 0.0
0.75 2.0 0.0
0.800000011921 2.0 0.0
0.850000023842 2.0 0.0
0.899999976158 2.0 0.0
0.949999988079 2.0 0.0
1.0 2.0 0.0
1.04999995232 2.0 0.0
1.10000002384 2.0 0.0
1.14999997616 2.0 0.0
1.20000004768 2.0 0.0
1.25 2.0 0.0
1.29999995232 2.0 0.0
1.35000002384 2.0 0.0
1.39999997616 2.0 0.0
1.45000004768 2.0 0.0
1.5 2.0 0.0
1.54999995232 2.0 0.0
1.60000002384 2.0 0.0
1.64999997616 2.0 0.0
1.70000004768 2.0 0.0
1.75 2.0 0.0
1.79999995232 2.0 0.0
1.85000002384 2.0 0.0
1.89999997616 2.0 0.0
1.95000004768 2.0 0.0
2.0 2.0 0.0
2.04999995232 2.0 0.0
2.09999990463 2.0 0.0
2.15000009537 2.0 0.0
2.20000004768 2.0 0.0
2.25 2.0 0.0
2.29999995232 2.0 0.0
2.34999990463 2.0 0.0
2.40000009537 2.0 0.0
2.45000004768 2.0 0.0
2.5 2.0 0.0
2.54999995232 2.0 0.0
2.59999990463 2.0 0.0
2.65000009537 2.0 0.0
2.70000004768 2.0 0.0
2.75 2.0 0.0
2.79999995232 2.0 0.0
2.84999990463 2.0 0.0
2.90000009537 2.0 0.0
2.95000004768 2.0 0.0
3.0 1.95000004768 0.0
3.0 1.89999997616 0.0
3.0 1.85000002384 0.0
3.0 1.79999995232 0.0
3.0 1.75 0.0
3.0 1.70000004768 0.0
3.0 1.64999997616 0.0
3.0 1.60000002384 0.0
3.0 1.54999995232 0.0
3.0 1.5 0.0
3.0 1.45000004768 0.0
3.0 1.39999997616 0.0
3.0 1.35000002384 0.0
3.0 1.29999995232 0.0
3.0 1.25 0.0
3.0 1.20000004768 0.0
3.0 1.14999997616 0.0
3.0 1.10000002384 0.0
3.0 1.04999995232 0.0
3.0 1.0 0.0
3.0 0.949999988079 0.0
3.0 0.899999976158 0.0
3.0 0.850000023842 0.0
3.0 0.800000011921 0.0
3.0 0.75 0.0
3.0 0.699999988079 0.0
3.0 0.649999976158 0.0
3.0 0.600000023842 0.0
3.0 0.550000011921 0.0
3.0 0.5 0.0
3.0 0.449999988079 0.0
3.0 0.40000000596 0.0
3.0 0.34999999404 0.0
3.0 0.300000011921 0.0
3.0 0.25 0.0
3.0 0.20000000298 0.0
3.0 0.15000000596 0.0
3.0 0.10000000149 0.0
3.0 0.0500000007451 0.0
2.95000004768 0.0 0.0
2.90000009537 0.0 0.0
2.84999990463 0.0 0.0
2.79999995232 0.0 0.0
2.75 0.0 0.0
2.70000004768 0.0 0.0
2.65000009537 0.0 0.0
2.59999990463 0.0 0.0
2.54999995232 0.0 0.0
2.5 0.0 0.0
2.45000004768 0.0 0.0
2.40000009537 0.0 0.0
2.34999990463 0.0 0.0
2.29999995232 0.0 0.0
2.25 0.0 0.0
2.20000004768 0.0 0.0
2.15000009537 0.0 0.0
2.09999990463 0.0 0.0
2.04999995232 0.0 0.0
2.0 0.0 0.0
1.95000004768 0.0 0.0
1.89999997616 0.0 0.0
1.85000002384 0.0 0.0
1.79999995232 0.0 0.0
1.75 0.0 0.0
1.70000004768 0.0 0.0
1.64999997616 0.0 0.0
1.60000002384 0.0 0.0
1.54999995232 0.0 0.0
1.5 0.0 0.0
1.45000004768 0.0 0.0
1.39999997616 0.0 0.0
1.35000002384 0.0 0.0
1.29999995232 0.0 0.0
1.25 0.0 0.0
1.20000004768 0.0 0.0
1.14999997616 0.0 0.0
1.10000002384 0.0 0.0
1.04999995232 0.0 0.0
1.0 0.0 0.0
0.949999988079 0.0 0.0
0.899999976158 0.0 0.0
0.850000023842 0.0 0.0
0.800000011921 0.0 0.0
0.75 0.0 0.0
0.699999988079 0.0 0.0
0.649999976158 0.0 0.0
0.600000023842 0.0 0.0
0.550000011921 0.0 0.0
0.5 0.0 0.0
0.449999988079 0.0 0.0
0.40000000596 0.0 0.0
0.34999999404 0.0 0.0
0.300000011921 0.0 0.0
0.25 0.0 0.0
0.20000000298 0.0 0.0
0.15000000596 0.0 0.0
0.10000000149 0.0 0.0
0.0500000007451 0.0 0.0
1.92389535904 1.00425577164 0.0
0.962816476822 1.03718352318 0.0
1.4239218235 0.62741535902 0.0
1.45849025249 1.39318692684 0.0
2.39386892319 1.40083169937 0.0
2.39131355286 0.608686447144 0.0
0.586701869965 0.586701869965 0.0
0.566272735596 1.43355035782 0.0
1.9081890583 0.496020078659 0.0
1.92800712585 1.51790297031 0.0
1.0221118927 1.54009795189 0.0
1.01967489719 0.454332590103 0.0
0.440729767084 1.00606155396 0.0
2.56987261772 1.0 0.0
1.53082966805 1.0036740303 0.0
2.64388775826 1.64462804794 0.0
2.64704203606 0.363784432411 0.0
0.337714105844 0.338117390871 0.0
1.60514175892 0.332678407431 0.0
2.24915647507 1.08992540836 0.0
2.20062232018 0.33421304822 0.0
0.330096274614 1.66990375519 0.0
1.63295292854 1.67075681686 0.0
2.21869587898 1.66296577454 0.0
1.12306690216 0.760296463966 0.0
1.30793893337 1.67705070972 0.0
1.729347229 0.759696543217 0.0
1.74842071533 1.25762605667 0.0
2.10559368134 0.741705715656 0.0
1.25286257267 1.15111923218 0.0
1.29719257355 0.310797899961 0.0
2.68730425835 1.28998053074 0.0
2.68735289574 0.704429149628 0.0
0.732113361359 0.316447168589 0.0
0.745902776718 1.68868935108 0.0
0.307496875525 0.728528439999 0.0
0.30371260643 1.27790665627 0.0
0.712617337704 0.863825976849 0.0
0.694492459297 1.16546559334 0.0
2.0234003067 1.25871217251 0.0
0.925504148006 1.29442918301 0.0
0.838016152382 0.636265516281 0.0
2.357660532 0.860438168049 0.0
1.84233462811 0.25492605567 0.0
1.99304568768 1.75595653057 0.0
2.42711901665 0.235844939947 0.0
1.21531951427 1.39367067814 0.0
1.30640864372 0.917875111103 0.0
2.43738031387 1.75197172165 0.0
1.08672130108 1.76303219795 0.0
2.16563129425 1.44456493855 0.0
1.08294796944 0.22943623364 0.0
0.533788502216 1.77250385284 0.0
0.231042474508 0.934013545513 0.0
1.21892499924 0.547251403332 0.0
2.77215504646 1.08811020851 0.0
0.784610211849 1.46895813942 0.0
0.531916558743 0.217189148068 0.0
0.221584320068 0.523913681507 0.0
0.229350626469 1.48074245453 0.0
1.63103973866 0.55575555563 0.0
2.4518237114 1.17933690548 0.0
2.78821372986 1.4819047451 0.0
2.78529667854 0.522362112999 0.0
1.66383481026 1.45877885818 0.0
0.50388610363 0.806388735771 0.0
2.11536097527 0.524349093437 0.0
0.938411712646 0.830476522446 0.0
2.78861021996 0.212507873774 0.0
2.79608488083 1.78567588329 0.0
1.54884040356 1.20110440254 0.0
1.72367179394 1.0556871891 0.0
0.494657039642 1.20573890209 0.0
1.47493124008 1.79556572437 0.0
2.79686188698 0.882023632526 0.0
2.04206085205 0.199746236205 0.0
1.52765369415 0.800453364849 0.0
1.79167151451 1.79467856884 0.0
0.193420618773 0.199805989861 0.0
1.45570373535 0.192498326302 0.0
2.11184453964 0.944507241249 0.0
2.57879471779 1.45598351955 0.0
2.57388734818 0.543704092503 0.0
1.91741466522 0.802415788174 0.0
0.890590071678 0.191472753882 0.0
0.193318113685 1.80668187141 0.0
0.898639380932 1.80687952042 0.0
1.44994401932 0.426786541939 0.0
0.189860582352 1.12449014187 0.0
0.408894985914 0.521464645863 0.0
2.3829574585 1.58047699928 0.0
2.37106847763 0.423654019833 0.0
1.4612030983 1.58198356628 0.0
2.24577474594 1.27400684357 0.0
1.12274026871 0.947148561478 0.0
0.577911436558 0.408910602331 0.0
1.07280635834 1.18570888042 0.0
2.53749012947 0.818118095398 0.0
2.59593749046 0.184729322791 0.0
2.60061311722 1.81652164459 0.0
0.392703026533 1.50509095192 0.0
0.733813762665 0.492795854807 0.0
1.6904784441 0.179575875401 0.0
1.01400828362 0.628065049648 0.0
0.619147717953 1.01143229008 0.0
2.26777625084 0.175895810127 0.0
0.590731978416 1.61363863945 0.0
1.30664694309 0.740705132484 0.0
2.03284621239 0.37615224719 0.0
2.14307761192 1.82727169991 0.0
0.790627062321 1.02394115925 0.0
0.371598392725 0.1696203053 0.0
1.76525139809 0.400707036257 0.0
1.19350898266 1.55958604813 0.0
1.80235421658 1.62892270088 0.0
1.87816500664 1.17269146442 0.0
1.88987255096 1.34710943699 0.0
0.36939266324 1.83358752728 0.0
1.23906683922 1.83201575279 0.0
0.16755194962 0.366224646568 0.0
0.166327148676 1.6387399435 0.0
2.40648508072 1.01736104488 0.0
2.05819988251 1.60697221756 0.0
2.083548069 1.11296415329 0.0
2.26956224442 0.720536410809 0.0
0.689796328545 1.33518028259 0.0
1.85464060307 0.653341770172 0.0
1.66464245319 0.910419642925 0.0
1.22729074955 0.154215365648 0.0
1.62959229946 1.84123802185 0.0
2.8369884491 1.63361489773 0.0
2.83911132812 0.36318513751 0.0
0.679834008217 1.8390994072 0.0
1.38824617863 1.24523389339 0.0
0.158434122801 0.794800460339 0.0
2.841319561 1.23558020592 0.0
0.679217755795 0.159985259175 0.0
0.893298864365 1.64674413204 0.0
0.698522388935 0.701570749283 0.0
2.84126377106 0.661694169044 0.0
1.05110251904 1.38623726368 0.0
2.60501790047 1.15681445599 0.0
0.887285232544 0.353807538748 0.0
1.38150966167 1.05458414555 0.0
1.33160626888 1.49960815907 0.0
2.30041098595 1.84198117256 0.0
1.16415464878 0.401508122683 0.0
0.158457919955 1.3419522047 0.0
0.344636976719 1.12753736973 0.0
0.365506261587 0.870927393436 0.0
2.53359675407 1.30909132957 0.0
0.848625123501 1.15966916084 0.0
0.439945101738 1.35387992859 0.0
2.00355768204 0.629478633404 0.0
0.449331581593 0.66699296236 0.0
1.80747926235 0.907404005527 0.0
2.26596307755 0.529738903046 0.0
2.02122020721 1.40884518623 0.0
2.50955343246 0.417406201363 0.0
0.144101709127 0.649093091488 0.0
2.51735830307 0.674515604973 0.0
0.885037183762 0.502538621426 0.0
0.92062485218 1.43429255486 0.0
2.65940284729 0.889779806137 0.0
1.58797383308 1.34028971195 0.0
2.21898388863 0.846752583981 0.0
1.92317545414 0.13653562963 0.0
2.52072119713 1.58090960979 0.0
1.77516639233 0.539136111736 0.0
1.80221271515 1.46310281754 0.0
2.86410069466 1.36913430691 0.0
1.59946346283 0.684772193432 0.0
1.30491983891 0.449034243822 0.0
0.459383279085 1.66039276123 0.0
1.90628230572 1.86576378345 0.0
1.44053506851 0.903450012207 0.0
1.14044320583 1.08186352253 0.0
0.811750113964 0.769727826118 0.0
[...]
POINT_DATA 3288
SCALARS temp double
LOOKUP_TABLE default
0.0
0.0
0.0
0.0
0.0
0.0
0.0
0.0
0.0
0.0
0.0
0.0
0.0
0.0
0.0
0.0
0.0
0.0
0.0
0.0
0.0
0.0
0.0
0.0
0.0
0.0
0.0
0.0
0.0
0.0
0.0
0.0
0.0
0.0
0.0
0.0
0.0
0.0
0.0
0.0
0.0
0.0
0.0
0.0
0.0
0.0
0.0
0.0
0.0
0.0
0.0
0.0
0.0
0.0
0.0
0.0
0.0
0.0
0.0
0.0
0.0
0.0
0.0
0.0
0.0
0.0
0.0
0.0
0.0
0.0
0.0
0.0
0.0
0.0
0.0
0.0
0.0
0.0
0.0
0.0
0.0
0.0
0.0
0.0
0.0
0.0
0.0
0.0
0.0
0.0
0.0
0.0
0.0
0.0
0.0
0.0
0.0
0.0
0.0
0.0
0.0
0.0
0.0499999523163
0.100000023842
0.149999976158
0.200000047684
0.25
0.299999952316
0.350000023842
0.399999976158
0.450000047684
0.5
0.549999952316
0.600000023842
0.649999976158
0.700000047684
0.75
0.799999952316
0.850000023842
0.899999976158
0.950000047684
1.0
0.949999988079
0.899999976158
0.850000023842
0.800000011921
0.75
0.699999988079
0.649999976158
0.600000023842
0.550000011921
0.5
0.449999988079
0.40000000596
0.34999999404
0.300000011921
0.25
0.20000000298
0.15000000596
0.10000000149
0.0500000007451
0.0
0.0
0.0
0.0
0.0
0.0
0.0
0.0
0.0
0.0
0.0
0.0
0.0
0.0
0.0
0.0
0.0
0.0
0.0
0.0
0.0
0.0
0.0
0.0
0.0
0.0
0.0
0.0
0.0
0.0
0.0
0.0
0.0
0.0
0.0
0.0
0.0
0.0
0.0
0.0
0.0
0.0
0.0
0.0
0.0
0.0
0.0
0.0
0.0
0.0
0.0
0.0
0.0
0.0
0.0
0.0
0.0
0.0
0.0
0.149854329486
0.0313999953592
0.0561972151792
0.0580909557624
0.250939737158
0.252924247688
0.0122791019385
0.0114524140711
0.101926078399
0.102728132435
0.0230157099079
0.022697075831
0.0109125130047
0.42582485658
0.0801121158971
0.229548386006
0.235618167776
0.00410068876015
0.0448449829998
0.249115564364
0.113620914076
0.00391439552757
0.0463942678651
0.117719358023
0.0383803661616
0.0271242944692
0.102103588947
0.1040452152
0.183075509452
0.0497095470109
0.0257417529773
0.447369407458
0.444850225863
0.00987068435102
0.00998441414957
0.00666214957961
0.00654137598642
0.0194904177865
0.0185994401899
0.160700098903
0.0263798094119
0.021217932362
0.291991757021
0.0507913627527
0.0615679671232
0.114241262302
0.0391703580914
0.0553473884367
0.12173852757
0.0141228732881
0.166345643638
0.0135981650211
0.00479120336373
0.0053777326204
0.0366187179004
0.594988363539
0.0169364469605
0.00456280481295
0.00379517139849
0.00390569142666
0.0718574451093
0.333776674866
0.397473530287
0.398898586412
0.074238967438
0.0121892953866
0.147159718268
0.0290869642715
0.167615159187
0.170501955447
0.0783363209536
0.108554415522
0.0118462361347
0.0230544677769
0.613275875824
0.054691598493
0.0757909986222
0.0381325754973
0.00138621442419
0.0210922883759
0.201304008448
0.307706078198
0.30538350912
0.141036724955
0.00820358964305
0.00133874572668
0.00839862253208
0.0436248178491
0.00432662308385
0.00731934691872
0.183777456888
0.182121980349
0.0436517705077
0.225958215789
0.0411261043565
0.0090552699249
0.0363485976674
0.382938819223
0.113835630404
0.113737658217
0.00671266289904
0.0145155494646
0.0285712491214
0.0286464076835
0.0165146260421
0.0679747536246
0.0088650252252
0.0512413662794
0.0978068037108
0.0553902056325
0.0231073186448
0.00237067862838
0.0681136111752
0.0295690545516
0.0674782857302
0.134093962253
0.120891972127
0.00230959606756
0.0130265558492
0.00211075802875
0.00206990036968
0.324884563311
0.105785640347
0.190002026266
0.2335144863
0.0164854724786
0.114438159778
0.0981793716114
0.0117429840198
0.0230339331188
0.303935177793
0.30205499604
0.00467271739747
0.0590203049713
0.00347534867275
0.601901181825
0.0046443061357
0.0146695517804
0.0173107413721
0.533678529714
0.0300570168752
0.433680174514
0.0145242041816
0.0628069545104
0.041078342742
0.0641773996744
0.0260382738514
0.00314885476111
0.00811292223385
0.00865275588904
0.345047279142
0.0249108712271
0.00925328201288
0.141229921344
0.00966866113285
0.123157944043
0.187304989598
0.138991761337
0.220463437552
0.00283356565525
0.330977998118
0.0194801927344
0.0226820769124
0.485220546403
0.0754165372512
0.232515580254
0.0313839194127
0.224846591576
0.0882111254171
0.0917852757308
0.528149643838
0.0785546101043
0.0360452664627
0.00582181060775
0.0300907682537
0.0685235925661
0.0421491913268
0.0224872391983
0.0414165488787
0.192019290461
0.727275580535
0.294915950095
0.00693224448211
0.0123659356071
0.263491939774
0.00710888038012
0.0771128138831
0.0127237842324
0.0670566068106
0.0412692116758
0.0177095267591
0.0766202617259
0.00303270475983
0.0130739910812
0.00602521841802
0.0490668827114
0.067833549113
0.00587402075777
0.0950607167674
0.166174035255
0.0233211445751
0.0122280604375
0.0216784590274
0.651434465269
0.187055264586
0.00613105301748
0.179616945542
0.0214184367856
0.0329434832782
0.12391773237
0.0246674326004
0.109829337536
0.106799624351
0.0554808744819
0.0162667063048
0.0599775640538
0.161484103387
0.0178147356863
0.00448119765093
0.0871705074911
0.0137605584878
0.0361620644479
0.0511606122914
0.128582876425
0.0459502844598
0.275405281408
0.0043826230331
0.200836422574
0.363809766646
0.0353635349076
0.158856675167
0.0858780090205
0.395162592056
0.309525309016
0.00786407438743
0.0331280830192
0.0458121430734
0.0468216516346
0.00764562179906
0.0619037256298
0.00285710528418
0.0136731558597
0.00225251055367
0.0133722377489
0.311674490256
0.388605210905
0.00771490734404
0.00216779530378
0.525367567472
0.00052066646285
0.0315965585278
0.0270514565849
0.138315432273
0.0647020620316
0.00179655860434
0.713610240009
0.0849805451322
0.00268425281753
0.00484026556335
0.0018715180032
0.0200890863188
0.00740636447978
0.0285603612206
0.0734099348847
0.0913909126424
0.0536220735575
0.248970316961
0.00735804742546
0.00101326016493
0.25115307359
0.0305887667353
0.0604563050836
0.409619708727
0.406764643191
0.000459254633966
0.277987622491
0.512573947142
0.00452340179558
0.00111071773269
0.174024540443
0.00866040401711
0.00104786020709
0.0177584365202
0.230030413314
0.234328377506
0.0914327007088
0.0137566060464
0.142810787172
0.177079916769
0.00932795712428
0.0155510469307
0.0184847182699
0.0137898630465
0.00110829006091
0.0294780373141
0.00603644706991
0.0634671797184
0.0157300524766
0.370370018909
0.0342898065275
0.117747393568
0.0313395683604
0.114846492614
0.0761468425818
0.159449648797
0.00273564409318
0.129771643505
0.0923798215469
0.494815742945
0.0354759464871
0.133914944882
0.0463757094413
0.177914644363
0.218897665725
0.551214322343
0.0658380901366
0.0559779564607
0.00258539956889
0.00932435874156
0.00185472640076
0.00277859279975
0.0118146166079
0.051991033732
0.154747876765
0.0207854846317
0.0136339266069
0.00245852848909
0.0484798243
0.0831295834831
0.0903243476609
0.0590584762793
0.0317823397996
0.0494470757641
0.155159510507
0.0487147492934
0.021575619971
0.0149775949401
0.00890168717157
0.0666009002596
0.0272985406252
0.171018042893
0.00791412345863
0.215573700546
0.0221476574479
0.0106176356537
0.187643328919
0.166749711249
0.00611149247549
0.118763529335
0.285206044635
0.00794765490398
0.286277213751
0.0365740336055
0.738868553273
0.012399135532
0.036729459927
0.120100621509
0.0194728267196
0.0112594113773
0.0833010107231
0.0427542296983
0.00485788834381
0.0330590541846
0.00408406903535
0.0688473486237
0.0196394958037
0.0322615411007
0.0372016494188
0.0136934726637
0.0490708173565
0.439061466991
0.0117075036467
0.469767513335
0.0875830506814
0.221329068709
0.0585154864268
0.00427342798055
0.00418281722668
0.00390058786037
0.00539405756125
0.0270106801721
0.0232240239394
0.37287551575
0.0236791119687
0.0015111699157
0.145371312491
0.00481072639395
0.00207924904629
0.0108327010539
0.215342345534
0.0167222575505
0.00900972900211
0.0182475097694
0.227815630469
0.0482444307463
0.00189887197587
0.0056581945871
0.0197473132614
0.107366112207
0.0311969894224
0.143666515655
0.0549668822588
0.609763116618
0.0362588734599
0.328182725791
0.23621633821
0.376013346003
0.293330106224
0.0163362667324
0.111630332667
0.0553887097812
0.0821829719534
0.23530800525
0.408885560116
0.0866906552814
0.118605770305
0.0428835808093
0.00289974397601
0.00215929366393
0.506717031737
0.123824428929
0.0714167349159
0.139795608263
0.0099750563145
0.0179528107059
0.0136101856435
0.0334431818393
0.417365576074
0.0269770859141
0.00438863813537
0.0362767893143
0.625519023346
0.00747553967696
0.139393845076
0.0107530597779
0.00331656369812
0.120042835062
0.00977666080868
0.496844860047
0.0249189586718
0.0281430690082
0.0110049956071
0.070375887078
0.213198989333
0.0691413450677
0.00718966008277
0.288091296047
0.165572200582
0.468305738358
0.169493325489
0.0155832039041
0.00660074352815
0.318873743931
0.0940160924435
0.0959513199661
0.0855211568612
0.132266764698
0.0368198665144
0.0349044744755
0.0338816768711
0.0682503288978
0.257735552578
0.217161213158
0.374544417922
0.0623100277437
0.0185548244058
0.113947918988
0.0220088674159
0.0288365733604
0.0913804316398
0.0572484968745
0.00131290575036
0.00266344259438
0.0380082723274
0.215981794611
0.045313324573
0.0197808690306
0.256454516121
0.00134021261571
0.0411153622591
0.00324547303023
0.0256866379976
0.0268211361031
0.00109416259523
0.0332459572931
0.0186772357459
0.0991935027203
0.084011145372
0.231460604493
0.0011450338491
0.000573892382805
0.00274685139788
0.635634295921
0.0557157438869
0.0399757375629
0.0110321542604
0.299139904127
0.0018101072995
0.0976818800096
0.0111702065874
0.00310529839024
0.0322749565919
0.116076657066
0.00536976134612
0.00342039660783
0.0199915677016
0.322769323357
0.0176569093633
0.0133918112225
0.0190968092135
0.272564396125
0.297452629791
0.0193965941311
0.193711948171
0.38577299575
0.703917321786
0.013759325631
0.355362705134
0.355346995485
0.337888252518
0.0123694197619
0.0840341567665
0.000582534223408
0.0121894880054
0.00170006003436
0.10760047009
0.006093903527
0.112029210098
0.107389667636
0.132609031185
0.0049251066197
0.00983343463271
0.0139417424371
0.0674280973459
0.00713003447457
0.0187092595184
0.0516149485656
0.000558003320951
0.02894883558
0.0541435950097
0.0190520733643
0.000546385088007
0.00499583783816
0.00724434796702
0.593003633293
0.52181372103
0.00726080889264
0.0976629223623
0.0615111118232
0.0056524100298
0.163521782797
0.0076757669834
0.349584875608
0.345705557397
0.0270828977509
0.0252339840334
0.0577507085953
0.00930575594515
0.527782268314
0.00613463596198
0.127364107882
0.0173692038254
0.0137221133828
0.00762656191499
0.104823515533
0.803551564164
0.0487531441406
0.174976804301
0.175023277875
0.0110431433052
0.0111464599625
0.0146311600732
0.0313591476569
0.173576580876
0.00433220549221
0.256585526578
0.00752136759658
0.425751196719
0.372670843979
0.139798897326
0.466934806958
0.121055662923
0.00553194871304
0.024452918481
0.0778410375618
0.0713159547434
0.0193514791684
0.0646612580241
0.00187452463062
0.0428173134266
0.159302416007
0.00477707424447
0.159560128358
0.101313989319
0.0455585640447
0.00819507417802
0.00932944023611
0.0549807777452
0.0114772431285
0.00693865441917
0.0370167781575
0.291998781344
0.0797693418128
0.00761454269993
0.213397858165
0.0155861652135
0.0634582113091
0.0518320545414
0.00465242667119
0.16525540241
0.00767843929698
0.0213890656736
0.0361369296591
0.0047203770242
0.160301096936
0.0281445874568
0.055802018689
0.262636673488
0.0503227548024
0.209310155875
0.00519109784357
0.209473389688
0.0234278229996
0.178788365592
0.0431771051014
0.00344232150125
0.0163305693286
0.0350557279709
0.0812307974422
0.042362380466
0.0476590003865
0.001758940111
0.00366261357859
0.0224872389796
0.0302487477604
0.0422622370828
0.0216294048629
0.0221202858904
0.018246827539
0.0989432246955
0.0305563282984
0.014217736433
0.217435267439
0.0440457871952
0.547020032326
0.0253348642732
0.175626073184
0.255547108778
0.0492695457977
0.211856798538
0.261113731452
0.471206915077
0.690392717432
0.00703525131435
0.00138848600556
0.00766843858469
0.0762091005297
0.0309084082689
0.0584472101616
0.011583506402
0.0814012505244
0.542910019012
0.0477856819156
0.106645906591
0.00684771301788
0.247284361473
0.0211208204654
0.456729283123
0.016842557972
0.0651262154691
0.065144239336
0.00954770613364
0.580740374749
0.189111700916
0.00298162290803
0.0077834699526
0.0625875418765
0.0117896680281
0.180972697346
0.000887111411403
0.090134273264
0.00204993829207
0.0385343263824
0.0726277202879
0.0807030210497
0.0194502009322
0.0818672433677
0.126657009498
0.0256661808673
0.0304652409419
0.143649876485
0.0152613826272
0.0376590213118
0.0149870641085
0.0340013801013
0.0216928529508
0.81953187508
0.00933539504163
0.00348883903221
0.0756884930791
0.326871780266
0.121734299637
0.000827875196702
0.288205151501
0.00140830539793
0.00178098320455
0.101499209744
0.00304755821625
0.013730458581
0.0804967069532
0.123662895846
0.0146836993574
0.299406634373
0.29764904544
0.0919213011908
0.0546335533678
0.00398396113612
0.00280509490383
0.00128441964878
0.0160905094028
0.00203978752026
0.571809355039
0.00557862062938
0.203720346631
0.575288429247
0.00159967721258
0.0035108639976
0.227817851941
0.0653858264789
0.000175219180727
0.108434559978
0.02384330988
0.264217210495
0.151810576107
0.0355154466878
0.252505834747
0.0752935118703
0.00148881561761
0.747656424699
0.00481729982253
0.00332563759227
0.0467350522049
0.0038032638797
0.0151194914625
0.0420169960163
0.00840723997665
0.00474349330913
0.00582100260274
0.0869582787928
0.00343430940785
0.0691798762648
0.336497492259
0.336192974313
0.0772263087468
0.0385345273797
0.119728611427
0.00554110854589
0.370176744495
0.365417996984
0.286211736356
0.026512738633
0.489150572433
0.0156886985298
0.224223834554
0.0531044160864
0.0261059552669
0.00849413665777
0.081000286352
0.0347141109226
0.0178739709804
0.0497691009629
0.0611612762021
0.00314811317762
0.47456381078
0.031821272748
0.00111030338679
0.00336214412556
0.220391284859
0.0904455412079
0.00939145089593
0.0371803679584
0.337707967838
0.024351674057
0.00342904055488
0.0743899991508
0.322924751729
0.466193315718
0.0641655281055
0.0142910659715
0.285191673411
0.184394243211
0.00699915364721
0.387102300639
0.049035560367
0.00259119447962
0.015899302805
0.0637414318468
0.0117555644508
0.0392237527272
0.0681814555992
0.340080856933
0.133335032835
0.153965644187
0.0218307927473
0.0307848282584
0.0061157447053
0.164263830766
0.682911311291
0.131943977047
0.102287550818
0.105913676615
0.0187224211817
0.0625701594942
0.293974418136
0.1632837266
0.183366080589
0.000153898393452
0.0230981402253
0.111638629029
0.197900476763
0.163538747005
0.148825151807
0.134661937208
0.194479051435
0.0221237544326
0.0191031649524
0.0297094243426
0.202081961884
0.0368340398761
0.44002396418
0.0333822422484
0.0384330648107
0.0293755049465
0.0555630659972
0.147603213574
0.213500969596
0.0670863128841
0.42269384298
0.458799304359
0.190537710123
0.0362217768292
0.436339448249
0.041703264013
0.00575938656163
0.00323621990748
0.0155786637986
0.0108563821758
0.00189693282891
0.0076955831093
0.0100282032457
0.00145370587218
0.115493930688
0.0137553451751
0.0130189159054
0.0238546449685
0.0321641652115
0.0530339120025
0.606896265936
0.0866278407255
0.00808062656109
0.0140175158337
0.0732431025151
0.00518538157836
0.218364328033
0.0243263947853
0.097219415032
0.0321180748483
0.0213606778158
0.146590649967
0.058115581892
0.046653525637
0.00588480508445
0.098606583677
0.0797564986011
0.0862822654678
0.000691609105009
0.185063052678
0.0694989871189
0.0520349787499
0.0556854656113
0.0115407666872
0.0878321472844
0.144750145935
0.00537468861201
0.110786726392
0.0703010954393
0.000688603058868
0.126447203174
0.0397887808086
0.0259029684012
0.0334314790442
0.00605802358802
0.00870726110342
0.153962619592
0.0128844613445
0.0239900151174
0.114464217559
0.488732053121
0.00104786784129
0.419394000226
0.0139784951184
0.0466974852952
0.0546565311781
0.151313586022
0.244709787952
0.0423158939152
0.135101799177
0.0677232835342
0.211110940653
0.00207298400953
0.000895229815619
0.00184680953643
0.011087278622
0.0571100820641
0.0117095680605
0.0306116775672
0.0379165541694
0.0112504435044
0.127506960797
0.015273171744
0.0161729854661
0.0506908302414
0.0241910239152
0.0028423442913
0.0087929787912
0.000898467988968
0.0838221987638
0.0541592468278
0.094490537909
0.0520903905758
0.00609263448317
0.00502914941193
0.038655953106
0.152414851641
0.00491517855967
0.126208435978
0.00989521951355
0.286683441246
0.0719911443213
0.0240855945951
0.0145455463413
0.274950197139
0.00651073312873
0.0862982448329
0.0550913870208
0.581013370578
0.263668916742
0.0693905586461
0.0270397304933
0.0866309266519
0.268576662746
0.00229979429925
0.0246229365526
0.0153997067399
0.0197176982203
0.00614557158408
0.000885001481626
0.171192878568
0.117823596073
0.0448568597631
0.0112994502843
0.0117942480438
0.0274957217488
0.0473204544267
0.00377928177477
0.333980306255
0.114651914519
0.0194374956833
0.13271443042
0.0275462748388
0.0149957541894
0.176849696124
0.161385712405
0.364135625711
0.0611897508542
0.12911562396
0.122732459495
0.122421364084
0.0287152966952
0.00103777977373
0.0209329722561
0.432192958242
0.0172104985034
0.00908779928308
0.00500227819736
0.00110217696333
0.0258001599819
0.0501214085404
0.0438397970711
0.153295880248
0.0419614025475
0.0160647909383
0.0161731148353
0.00636273434993
0.00116784716693
0.162031722533
0.0169926046725
0.00254439129973
0.00300614413617
0.0106627757014
0.0417598458153
0.0153457627847
0.0904609804055
0.412412688663
0.243884878353
0.0553096243492
0.0154228971427
0.0256980507189
0.052048045286
0.0602761818969
0.0688214654776
0.00676205392254
0.00303651956994
0.00021779666469
0.000262293250786
0.0362663998085
0.00949376902861
0.00983990562862
0.00151466197182
0.465750705476
0.00107010373194
0.33013918487
0.0937141794242
0.699491368196
0.196668742236
0.142586672559
0.396211836162
0.0172090844766
0.156478216748
0.0406088866349
0.000833233568671
0.00898698558347
0.293819279995
0.0428095881552
0.0356262386498
0.344603617419
0.0974870069984
0.00717893528143
0.00997938824537
0.00809976176234
0.167606007946
0.0104770808706
0.0111511595548
0.543490216808
0.0380475044265
0.124170426921
0.00144799565793
0.081888962435
0.0125580099843
0.0103673539092
0.000326021207146
0.0737936805896
0.00893938629365
0.79719263185
0.0013263482279
0.244433432455
0.0179352258822
0.00606254303906
0.0263933070141
0.0354220102586
0.184100013355
0.000244583591774
0.022208783528
0.0233714515055
0.156179328364
0.00799995772608
0.00445264238213
0.00567592532391
0.00218280619379
0.0612687065588
0.0320638777989
0.257247816485
0.0005456737856
0.259281003411
0.0220122284986
0.00126887048829
0.0339865753045
0.26644703379
0.00616523369222
0.00183996946089
0.00927236508447
0.00356733144437
0.654482568403
0.0625182109462
0.00149765129338
0.081332738338
0.0689773990535
0.107198976351
0.0155465101408
0.00421283416223
0.00290811754531
0.0575582459307
0.0170783744262
0.0286369920355
0.415188916486
0.00405959041035
0.198378657701
0.354804397624
0.062313525855
0.0186134544446
0.408117476994
0.0180147710024
0.00218479167103
0.0126954559894
0.00909643312863
0.00129148858817
0.0887220375408
0.000570421921983
0.473219797938
0.00615733458805
0.00805773121982
0.00558893843493
0.649390445788
0.00322046827613
0.0124284063868
0.0172465143696
0.004490772171
0.0740971258662
0.000534495056361
0.00609441602684
0.0116556091464
0.414504822931
0.0975780777087
0.218699234853
0.0363376463313
0.0338318690019
0.0356041567846
0.0128734729093
0.00112450827803
0.00043694925142
0.0348810749652
0.229171419216
0.228517227286
0.112541513992
0.130102847018
0.00876117567815
0.0405535166213
0.142616217731
0.0175826371703
0.279494569482
0.0463950030529
0.0029114636684
0.214747282445
0.00411749344654
0.0166547548438
0.0317772731719
0.0173816324638
0.0048311567919
0.353783355627
0.35420941009
0.00293295666297
0.0393373858642
0.0140469210671
0.0207934190464
0.0434540408731
0.638896980935
0.0121506495125
0.0228510146562
0.0299932892146
0.0540388303769
0.350349216403
0.224133181184
0.0039465546672
0.203215289943
0.0836429464424
0.147540786715
0.0109960931121
0.0388944883399
0.00725198222253
0.0256719141774
0.278579065704
0.0228277204371
0.084159242111
0.00129969047301
0.0294611748392
0.275343045558
0.0245142312247
0.100397281361
0.0173724033881
0.070101842222
0.197656492526
0.00194234082863
0.0103735385529
0.359421402827
0.0132877051579
0.0261673437212