# vtk DataFile Version 1.0
2D Simulation C++
ASCII
DATASET UNSTRUCTURED_GRID
FIELD FieldData 1
NODES 1 2 int
2209 4256

POINTS 2209 double
0.0 0.0 0.0
0.0 1.0 0.0
1.0 1.0 0.0
1.0 0.0 0.0
0.0 0.02500000037252903 0.0
0.0 0.05000000074505806 0.0
0.0 0.07500000298023224 0.0
0.0 0.10000000149011612 0.0
0.0 0.125 0.0
0.0 0.15000000596046448 0.0
0.0 0.17499999701976776 0.0
0.0 0.20000000298023224 0.0
0.0 0.22499999403953552 0.0
0.0 0.25 0.0
0.0 0.2750000059604645 0.0
0.0 0.30000001192092896 0.0
0.0 0.32499998807907104 0.0
0.0 0.3499999940395355 0.0
0.0 0.375 0.0
0.0 0.4000000059604645 0.0
0.0 0.42500001192092896 0.0
0.0 0.44999998807907104 0.0
0.0 0.4749999940395355 0.0
0.0 0.5 0.0
0.0 0.5249999761581421 0.0
0.0 0.550000011920929 0.0
0.0 0.574999988079071 0.0
0.0 0.6000000238418579 0.0
0.0 0.625 0.0
0.0 0.6499999761581421 0.0
0.0 0.675000011920929 0.0
0.0 0.699999988079071 0.0
0.0 0.7250000238418579 0.0
0.0 0.75 0.0
0.0 0.7749999761581421 0.0
0.0 0.800000011920929 0.0
0.0 0.824999988079071 0.0
0.0 0.8500000238418579 0.0
0.0 0.875 0.0
0.0 0.8999999761581421 0.0
0.0 0.925000011920929 0.0
0.0 0.949999988079071 0.0
0.0 0.9750000238418579 0.0
0.02500000037252903 1.0 0.0
0.05000000074505806 1.0 0.0
0.07500000298023224 1.0 0.0
0.10000000149011612 1.0 0.0
0.125 1.0 0.0
0.15000000596046448 1.0 0.0
0.17499999701976776 1.0 0.0
0.20000000298023224 1.0 0.0
0.22499999403953552 1.0 0.0
0.25 1.0 0.0
0.2750000059604645 1.0 0.0
0.30000001192092896 1.0 0.0
0.32499998807907104 1.0 0.0
0.3499999940395355 1.0 0.0
0.375 1.0 0.0
0.4000000059604645 1.0 0.0
0.42500001192092896 1.0 0.0
0.44999998807907104 1.0 0.0
0.4749999940395355 1.0 0.0
0.5 1.0 0.0
0.5249999761581421 1.0 0.0
0.550000011920929 1.0 0.0
0.574999988079071 1.0 0.0
0.6000000238418579 1.0 0.0
0.625 1.0 0.0
0.6499999761581421 1.0 0.0
0.675000011920929 1.0 0.0
0.699999988079071 1.0 0.0
0.7250000238418579 1.0 0.0
0.75 1.0 0.0
0.7749999761581421 1.0 0.0
0.800000011920929 1.0 0.0
0.824999988079071 1.0 0.0
0.8500000238418579 1.0 0.0
0.875 1.0 0.0
0.8999999761581421 1.0 0.0
0.925000011920929 1.0 0.0
0.949999988079071 1.0 0.0
0.9750000238418579 1.0 0.0
1.0 0.9750000238418579 0.0
1.0 0.949999988079071 0.0
1.0 0.925000011920929 0.0
1.0 0.8999999761581421 0.0
1.0 0.875 0.0
1.0 0.8500000238418579 0.0
1.0 0.824999988079071 0.0
1.0 0.800000011920929 0.0
1.0 0.7749999761581421 0.0
1.0 0.75 0.0
1.0 0.7250000238418579 0.0
1.0 0.699999988079071 0.0
1.0 0.675000011920929 0.0
1.0 0.6499999761581421 0.0
1.0 0.625 0.0
1.0 0.6000000238418579 0.0
1.0 0.574999988079071 0.0
1.0 0.550000011920929 0.0
1.0 0.5249999761581421 0.0
1.0 0.5 0.0
1.0 0.4749999940395355 0.0
1.0 0.44999998807907104 0.0
1.0 0.42500001192092896 0.0
1.0 0.4000000059604645 0.0
1.0 0.375 0.0
1.0 0.3499999940395355 0.0
1.0 0.32499998807907104 0.0
1.0 0.30000001192092896 0.0
1.0 0.2750000059604645 0.0
1.0 0.25 0.0
1.0 0.22499999403953552 0.0
1.0 0.20000000298023224 0.0
1.0 0.17499999701976776 0.0
1.0 0.15000000596046448 0.0
1.0 0.125 0.0
1.0 0.10000000149011612 0.0
1.0 0.07500000298023224 0.0
1.0 0.05000000074505806 0.0
1.0 0.02500000037252903 0.0
0.9750000238418579 0.0 0.0
0.949999988079071 0.0 0.0
0.925000011920929 0.0 0.0
0.8999999761581421 0.0 0.0
0.875 0.0 0.0
0.8500000238418579 0.0 0.0
0.824999988079071 0.0 0.0
0.800000011920929 0.0 0.0
0.7749999761581421 0.0 0.0
0.75 0.0 0.0
0.7250000238418579 0.0 0.0
0.699999988079071 0.0 0.0
0.675000011920929 0.0 0.0
0.6499999761581421 0.0 0.0
0.625 0.0 0.0
0.6000000238418579 0.0 0.0
0.574999988079071 0.0 0.0
0.550000011920929 0.0 0.0
0.5249999761581421 0.0 0.0
0.5 0.0 0.0
0.4749999940395355 0.0 0.0
0.44999998807907104 0.0 0.0
0.42500001192092896 0.0 0.0
0.4000000059604645 0.0 0.0
0.375 0.0 0.0
0.3499999940395355 0.0 0.0
0.32499998807907104 0.0 0.0
0.30000001192092896 0.0 0.0
0.2750000059604645 0.0 0.0
0.25 0.0 0.0
0.22499999403953552 0.0 0.0
0.20000000298023224 0.0 0.0
0.17499999701976776 0.0 0.0
0.15000000596046448 0.0 0.0
0.125 0.0 0.0
0.10000000149011612 0.0 0.0
0.07500000298023224 0.0 0.0
0.05000000074505806 0.0 0.0
0.02500000037252903 0.0 0.0
0.5053504958091035 0.5061185227245276 0.0
0.7128493933869349 0.7042690421552401 0.0
0.7046532716829423 0.29497477255024557 0.0
0.2982825056190649 0.7091141742023463 0.0
0.2948012845905561 0.2990001146218788 0.0
0.7789193418416884 0.504640674641571 0.0
0.5033909422815348 0.2240998878151736 0.0
0.4946034356952591 0.7815016859405565 0.0
0.22395328410735296 0.49938777419130287 0.0
0.828391464527399 0.8238891054631002 0.0
0.8236784545132313 0.17413562556375797 0.0
0.17973504333321877 0.8291559501249558 0.0
0.17418663642124935 0.1798928887582027 0.0
0.6447039120549016 0.5676277609963942 0.0
0.5649106479882902 0.36856203952090105 0.0
0.44194674406747136 0.6377295614514704 0.0
0.36331929683307784 0.43248449508495374 0.0
0.8482007594300452 0.6435565425823117 0.0
0.644796080629747 0.15564289856438057 0.0
0.35308784696861945 0.8447627846055019 0.0
0.15549484159763166 0.3586225276320964 0.0
0.6475826644077702 0.8455715399659445 0.0
0.8450559545210775 0.3585376581054142 0.0
0.15844015208293202 0.6451235956593915 0.0
0.35937320623646224 0.1582785303915424 0.0
0.67444809201967 0.4479098663494974 0.0
0.5855324075903983 0.6802951702004016 0.0
0.44739378053155654 0.325339099648125 0.0
0.3299131409599698 0.5603763694781154 0.0
0.8859085563245701 0.5317697457055571 0.0
0.5324559783423487 0.11370351904196854 0.0
0.46943250998924163 0.8895259686608264 0.0
0.1137034542672255 0.4710366305304882 0.0
0.8993500471361252 0.7422629925680865 0.0
0.7423989559343698 0.1042093901771107 0.0
0.26127237470934284 0.8985973218215444 0.0
0.10454806409283739 0.26139291072449244 0.0
0.7434570767360305 0.8870670028601627 0.0
0.11704701210603603 0.7437737149956322 0.0
0.8863603124494988 0.25965537596713945 0.0
0.25927994108595565 0.1174840808163541 0.0
0.7448014699936936 0.6047910733800756 0.0
0.6110062107007994 0.2520568679934742 0.0
0.39664232263665766 0.7509492568688514 0.0
0.25474026464914307 0.39759201316227105 0.0
0.5235800020824348 0.5953671455186168 0.0
0.9000325895682852 0.888842906971724 0.0
0.888387192848789 0.1029312303699072 0.0
0.1147776671373574 0.9003425957744199 0.0
0.10283696697906863 0.11477824245243294 0.0
0.76311668451035 0.39095187230334977 0.0
0.2403787711733949 0.6140714899291637 0.0
0.3905717215092865 0.23983934114352604 0.0
0.9007788408354657 0.43786242868463143 0.0
0.43778205287543326 0.10319825702227133 0.0
0.5660398080924651 0.8990953303091802 0.0
0.10291590536415585 0.5659112567346473 0.0
0.7894401004850948 0.7434265867307879 0.0
0.7440926696204309 0.2127668334785007 0.0
0.2590868690833826 0.7905428432209154 0.0
0.21303877698241327 0.25919211107840456 0.0
0.7194533761318057 0.8033332634497371 0.0
0.7972893453053169 0.2848762366526062 0.0
0.2059549468232583 0.7187924458707324 0.0
0.2890722844581622 0.20283600008121858 0.0
0.5945405419046311 0.49658827319572585 0.0
0.49136115119192114 0.4155842438032097 0.0
0.4254503166183244 0.5501195770670928 0.0
0.6328063151580108 0.762073907626205 0.0
0.6537649053024226 0.3545522216656413 0.0
0.49732872148437746 0.6961008392371176 0.0
0.3549482345866192 0.6457264357605083 0.0
0.34993201045522176 0.35171660423372053 0.0
0.9176444911591164 0.8176403267493699 0.0
0.8174867576395892 0.08570616043259358 0.0
0.18560458681572134 0.9174132279287729 0.0
0.08556980471061727 0.18575148060811686 0.0
0.8279507967700096 0.9143929004981692 0.0
0.08908102294574008 0.8283515486066562 0.0
0.9141865530374171 0.17509202611272762 0.0
0.1751640830206486 0.08923516814134465 0.0
0.7001574482257588 0.5184140693406969 0.0
0.6513022437508668 0.6514400572616006 0.0
0.5141521360633524 0.30656226632310923 0.0
0.30148152719177385 0.48786925675859477 0.0
0.920595277174117 0.608078712900128 0.0
0.6137441849560585 0.0859717323047654 0.0
0.3982873451879418 0.9228855870896459 0.0
0.08405993783131588 0.3900078117344874 0.0
0.6634613555162497 0.9227423984321915 0.0
0.08085490287905357 0.6631935535334516 0.0
0.9224732410192169 0.3400680484434117 0.0
0.34012194682528346 0.08115021555272585 0.0
0.8242973680915573 0.4363262757166166 0.0
0.5681716162300691 0.8211639143261458 0.0
0.43598701639407184 0.17906064836985675 0.0
0.1790841968463586 0.5676728434584104 0.0
0.4344649012944129 0.4625464596838762 0.0
0.8223236079255016 0.5700347066569521 0.0
0.5695806578328516 0.18192009288385025 0.0
0.433220775331533 0.8219777975993166 0.0
0.18156768061315245 0.433924222735526 0.0
0.7739294255397582 0.6686152408361352 0.0
0.6696715814532826 0.22583313256856996 0.0
0.33337861722694323 0.7783820787093515 0.0
0.22630040512072683 0.33421646692124096 0.0
0.9310366139029609 0.6846129891150182 0.0
0.6851979784347288 0.0732472350205911 0.0
0.3158174272960959 0.9286824981532352 0.0
0.07498132188104928 0.3152788929645409 0.0
0.5631186206547075 0.7446521522524698 0.0
0.6029057512612219 0.42016248580222043 0.0
0.3763164802157606 0.5029223378468158 0.0
0.7357123987573551 0.45733933841031554 0.0
0.4561704957432051 0.2665180907151154 0.0
0.26856603138758417 0.5464469721736511 0.0
0.5889580615766585 0.6175310034434407 0.0
0.4189034590760411 0.39195967933759046 0.0
0.5723621650311681 0.5445990769123821 0.0
0.5485231284905047 0.4506281440902799 0.0
0.9369494602546712 0.49734776949047094 0.0
0.49921588633527825 0.06699612079980291 0.0
0.5038399318606143 0.9355258799357881 0.0
0.06740916470694246 0.5047032036356112 0.0
0.8484162685379802 0.49854640651714743 0.0
0.4982516450068475 0.1548442168204834 0.0
0.5012225100642013 0.8460931173209723 0.0
0.15476776778980436 0.5052546017947231 0.0
0.8469852744942036 0.6978339276455733 0.0
0.6985352163244217 0.15635172417943777 0.0
0.3039117605745639 0.846086564532241 0.0
0.15673919246721454 0.3049084195818987 0.0
0.7699315294167183 0.8410306296180824 0.0
0.8395195112271812 0.2322712198092937 0.0
0.1637629200093078 0.7712416333858788 0.0
0.23164629652398272 0.163697969882167 0.0
0.763994367506076 0.3272075331527438 0.0
0.23927373334398616 0.6770409886121058 0.0
0.3261677534327902 0.24029448740282575 0.0
0.6416452527588048 0.3022662304964852 0.0
[...]
POINT_DATA 2209
SCALARS Psi double
LOOKUP_TABLE default
0.0
0.0
0.0
0.0
0.0
0.0
0.0
0.0
0.0
0.0
0.0
0.0
0.0
0.0
0.0
0.0
0.0
0.0
0.0
0.0
0.0
0.0
0.0
0.0
0.0
0.0
0.0
0.0
0.0
0.0
0.0
0.0
0.0
0.0
0.0
0.0
0.0
0.0
0.0
0.0
0.0
0.0
0.0
0.0
0.0
0.0
0.0
0.0
0.0
0.0
0.0
0.0
0.0
0.0
0.0
0.0
0.0
0.0
0.0
0.0
0.0
0.0
0.0
0.0
0.0
0.0
0.0
0.0
0.0
0.0
0.0
0.0
0.0
0.0
0.0
0.0
0.0
0.0
0.0
0.0
0.0
0.0
0.0
0.0
0.0
0.0
0.0
0.0
0.0
0.0
0.0
0.0
0.0
0.0
0.0
0.0
0.0
0.0
0.0
0.0
0.0
0.0
0.0
0.0
0.0
0.0
0.0
0.0
0.0
0.0
0.0
0.0
0.0
0.0
0.0
0.0
0.0
0.0
0.0
0.0
0.0
0.0
0.0
0.0
0.0
0.0
0.0
0.0
0.0
0.0
0.0
0.0
0.0
0.0
0.0
0.0
0.0
0.0
0.0
0.0
0.0
0.0
0.0
0.0
0.0
0.0
0.0
0.0
0.0
0.0
0.0
0.0
0.0
0.0
0.0
0.0
0.0
0.0
0.0
0.0
-0.014797840525636501
-0.024608961271004575
-0.004818648688715186
-0.02385330687712611
-0.004803887359461885
-0.009025131959956773
-0.004215578924770887
-0.036556590803101155
-0.008551158613098516
-0.02972671248820512
-0.0013321699361563705
-0.02636480208310349
-0.0013414607319700643
-0.01679021204077356
-0.008498630404423505
-0.022821462788896206
-0.00998169330034727
-0.010530636368177936
-0.002232679723387312
-0.039948836722923695
-0.0031297692381621004
-0.042332373964731405
-0.0032392412863101174
-0.010223017543310923
-0.002280598435718481
-0.01010646224389503
-0.026395045771584195
-0.007038493568781971
-0.01507501713382234
-0.004404680523222841
-0.001580590722046643
-0.04483312381850081
-0.003261904999555816
-0.010179894941920623
-0.0009457825319520512
-0.03905825779527852
-0.0011201689082837416
-0.04242872357192904
-0.01090155021529894
-0.0013004714629048064
-0.0011204186725752767
-0.015358776768159029
-0.004641236876204884
-0.031716163918427014
-0.006503955643645237
-0.020255564227096175
-0.027568149766204003
-0.00031867213188543436
-0.025319884162364272
-0.0003250523969467095
-0.006085189657309148
-0.014164244467673082
-0.004293816644249156
-0.002435694913881938
-0.0013331581417746353
-0.04486644517200593
-0.00410624998181101
-0.023354549208753326
-0.002660494151355667
-0.02920396565657116
-0.0028375016355863536
-0.03523833629739407
-0.0031574188635352164
-0.0183816209620605
-0.0027334779633383798
-0.013743823413737
-0.010491753108811421
-0.016689498317992837
-0.033489311982980545
-0.007157846654460481
-0.028217876239356426
-0.021310572195011746
-0.0069884123398889185
-0.013102119936348364
-0.0004711324559862897
-0.034826685009536514
-0.0005058357159390683
-0.038478720885667776
-0.012319561519281595
-0.0004812381236069882
-0.0004676295834827641
-0.012524820112923718
-0.022503729912208913
-0.006569280139814705
-0.01078655303427845
-0.0035037108767966355
-0.0009336708662083267
-0.04156631157824978
-0.0014361788093813263
-0.04182291204354217
-0.004297267031500477
-0.001072550688627981
-0.0007840219523170337
-0.005285695575769392
-0.04077007207825732
-0.002999358216916367
-0.00869890716036123
-0.012229617707195179
-0.009260433577679297
-0.003069325466167309
-0.03998874562911
-0.005220916802101912
-0.017911249090318538
-0.00359445353366052
-0.032191389743165905
-0.004387751148715418
-0.004121230772728944
-0.0006343914519040911
-0.0385457033478339
-0.0008587376127515208
-0.03276204010814024
-0.01015065514311803
-0.013294986169176843
-0.008870885932396233
-0.005303789254043555
-0.012177333297970282
-0.021299116744118225
-0.009149930817033369
-0.0166661225790256
-0.011929168210533145
-0.0015269583691255473
-0.0006844059087554405
-0.03882831473052911
-0.001663169273653964
-0.005686004251053499
-0.0025083363505102626
-0.04305091536697214
-0.0056988880052753895
-0.013723265178791865
-0.00199233913257797
-0.037920708263313944
-0.002474685559135976
-0.03722462135675964
-0.0017813606729291027
-0.01847496932423102
-0.001626793765736208
-0.0045670874254496365
-0.01788927897227969
-0.0038206125168762407
-0.0057540099917453265
-0.02634948965610727
-0.006549385191161512
-0.04021840784746312
-0.0011053600469962878
-0.002827445982076458
-0.0007096458160717651
-0.019001282821363177
-0.028796948482851192
-0.017452661479544707
-4.729508815264913e-05
-0.021813322874550307
-4.363829847255392e-05
-0.018133768983658972
-0.0016659631149990438
-0.0005527842554665503
-0.03738849970482716
-0.0010789991951842537
-0.005688237959444082
-0.00039256191544680954
-0.03428141472679801
-0.00045057852373884074
-0.035488238163754675
-0.004895778684159937
-0.0004083727001921876
-0.00037360012654733763
-0.02032942030566035
-0.0015312412246591867
-0.033390113954849525
-0.0016688955517658222
-0.041864591631014414
-0.0024611263798886168
-0.01199452202843831
-0.0019793692247458113
-0.020215007522590554
-0.013786452751287388
-0.008503582946223307
-0.011920630029088289
-0.0064076908170737565
-0.02769161175544519
-0.008722181803592898
-0.017231671482924045
-0.004856603225060879
-0.008135841694698534
-0.012177035591710133
-0.0001622150261236593
-0.028926486789830196
-0.00017007089578149976
-0.0329764308418512
-0.009754535129987918
-0.000195412336451036
-0.00019881065809097557
-0.024482537591094724
-0.007786897998447176
-0.0061302131795447825
-0.01682665171774225
-0.03317722724229413
-0.006939950148292534
-0.0019974812180699806
-0.04365842164028881
-0.0033329353995381083
-0.026629101359099565
-0.0035112080502296282
-0.024605530823969234
-0.0034812405948962365
-0.03199388107398834
-0.01328163109641294
-0.003541862278049983
-0.0360555238684323
-0.00499810128953016
-0.036846922287838355
-0.0037675137061476674
-0.0005323139428041436
-0.0004492445101706229
-0.026208841942950565
-0.0006604404139027736
-0.029046500192467208
-0.0006743746500118324
-0.005197276992236311
-0.0033880727521152826
-0.01141791888858702
-0.02324024235248092
-0.028600606895703942
-0.0020196919934923046
-0.026113677049310124
-0.002023334260077922
-0.006028569286588697
-0.019498919767225724
-0.0052495121894940355
-0.0025071228711465933
-0.044900050286899265
-0.0015991515123058887
-0.006367026771976565
-0.03873982386350027
-0.024604195458254936
-0.03725820950305189
-0.014507389492741968
-0.019865908652387958
-0.0037184568515726936
-0.01483646010888396
-0.0028969018221492674
-0.009885656448552608
-0.006910548123477181
-0.008130329960730036
-0.0007851155233818282
-0.0004501337428033282
-0.0344224903250942
-0.0014280010138309884
-0.038157936720734385
-0.0177890552757385
-0.0010963149261606117
-0.0010390894185086602
-0.003376294142949013
-0.0015633425565147662
-0.045065813418083515
-0.00390270739356777
-0.00701228838581889
-0.0042360289489905825
-0.011484461771318639
-0.012277303286645709
-0.014964030300112697
-0.008768100874643466
-0.0014777090700634887
-0.04155745507469125
-0.0019806404386619176
-0.0020720629484699197
-0.00023463418896482375
-0.026588359958186557
-0.00024944500468764035
-0.0011707162850075538
-0.00025958312474519743
-0.03020529495037961
-0.00045199673090521095
-0.008739969775311492
-0.0285851309807588
-0.009162764344536318
-0.011642126552965298
-0.015875135079087856
-0.030314940667829735
-0.01942158373801361
-0.0009940158032753562
-0.03411461150346412
-0.0010632849449583944
-0.022507869478288884
-0.003844411192691779
-0.027687817288677165
-0.004149565715388591
-0.034066534399771864
-0.0005357017180958668
-0.021160643038327452
-0.0005324641071728967
-0.01506484439485775
-0.007476594823588073
-0.03177480803245486
-0.017379605750491228
-0.011136874432668796
-0.012891457429522073
-0.037340200861215
-0.008553409183294614
-0.01049407253310676
-0.015627984689696908
-0.010276608291858025
-0.010658679453404842
-0.005347974865731215
-0.00632127315074871
-0.010461792172727082
-0.020053165887825925
-0.023737535149335194
-0.004306312427557523
-0.00016221464029744228
-0.027844387549477365
-0.00017479493899633471
-0.030963876511716826
-0.0044612699595986734
-0.00021001663378225965
-0.00020720432566283692
-0.011729070440839148
-0.012363988263109695
-0.017711630412661758
-0.004191235010468337
-0.006510367555385137
-0.0067452347123618354
-0.0025388569376037047
-0.04032199048086466
-0.004981779921944694
-0.04427333673949696
-0.00814608363594166
-0.0020735711727436156
-0.0015214863644491365
-0.028934318553904926
-0.0013142850979346397
-0.0003567124413045995
-0.00025951566521171003
-0.0010929737612286677
-0.0003654480105257513
-0.028837426594856434
-0.0006138590756023574
-0.004345512051545503
-0.0022454294275019537
-0.04394161502007617
-0.006176352133527934
-0.008542145110347588
-0.003872180240966309
-0.042808811707559236
-0.002395783270404624
-0.00841071689980611
-0.004595012457996296
-0.03025649992339551
-0.005798030127511697
-0.04102832479929653
-0.011246279860298022
-0.0008462145736235216
-0.0007762279478913951
-0.02599617221898683
-0.012012612220517714
-0.0007005085492643255
-0.03703079198368866
-0.0007818370193447783
-0.007269537489309019
-0.0016144206102868387
-0.04303389538904792
-0.0023678684941351967
-0.0108088788371097
-5.5110067584428565e-05
-0.022645250637253603
-5.8610989721675976e-05
-0.007051673595993117
-0.0235764287137637
-4.9776750985395173e-05
-4.598912501770547e-05
-0.03549468348968321
-0.014975468775082157
-0.002747429638694539
-0.0359351857800828
-0.003486187790823891
-0.043547854685132795
-0.007253201371226977
-0.0013299784823967084
-0.0010517324645677442
-0.023561582690045494
-0.0059443827771304344
-0.022614259511656395
-0.005902886805514656
-0.003950799926634375
-0.007139711274872105
-0.009972557799762144
-0.00760686392271051
-0.0067334730415396
-0.0033735344166041757
-0.008121216768924753
-0.0034078757465814003
-0.001092290181592485
-0.043515779914840444
-0.002008326007410757
-0.04316610950883519
-0.013493626949751468
-0.014751677649195343
-0.01836077030103024
-0.017733229721583543
-0.005668622960108282
-0.007244342117594589
-0.00971444812961288
-0.0025711107858815236
-0.04046754209369188
-0.003924847814818808
-0.0048459568985999985
-0.003584985815646188
-0.014482755146696212
-0.03501504215321679
-0.011815325749740271
-0.01980154648174517
-0.003011468444285886
-0.03153697986771108
-0.0034423093005808984
-0.0006763911855701544
-0.0002698866537704308
-0.027663722711758265
-0.0005982618872110974
-0.019397101831514427
-0.020182964114480194
-0.028291337156594085
-0.012489345916239626
-0.008927781468407977
-0.006055164043763295
-0.014379498980500102
-0.0241726451015286
-0.030331195942332398
-0.03906135207871549
-0.002135059051842685
-0.01593630732006438
-0.0018503872671732009
-0.03173437420013819
-0.0025305677730683112
-0.02269425553158067
-0.002404158857087953
-0.01587728281243089
-0.001600739529380333
-0.03658311343169389
-0.0018539289440529525
-0.007306897222777414
-0.0008937256057791232
-0.04012783117086409
-0.00115379277041817
-0.008492479598962968
-0.004621473250175981
-0.010473726735754548
-0.026879450022246024
-0.0048085675427264945
-0.027222944347940845
-0.0053927090620964286
-0.011618959117355334
-0.00751818252270976
-0.0012150282159027154
-0.00019768169191671441
-0.023595696770459477
-0.0002271195738107375
-0.010419820739243515
-0.009633026268464325
-0.02201836255577662
-0.004642857766094192
-0.0009238431164416402
-0.04115448149275412
-0.0012816105740032083
-0.0042757777699470615
-0.021690766935392163
-0.003983448334261964
-0.01914002330223653
-0.0003575300830458164
-0.030992750815626805
-0.0003711483183394442
-0.02721082776486335
-0.0014412815259589717
-0.00026277357018776305
-0.0002169474385442918
-0.0004933617452491787
-0.0002405733833311403
-0.025600099097274013
-0.000624757493625938
-0.002336591494487289
-0.000833103709618797
-0.041238999112920505
-0.001778787681994175
-0.010790502415106958
-2.597297018927791e-06
-0.012100963261629327
-2.195589357670267e-06
-0.020866482640573683
-0.007588044441236092
-0.005145633525160711
-0.014151630600458712
-0.033644539725116225
-0.0008197194699389748
-0.022784029649192832
-0.0008145305044260543
-0.025165849882347203
-0.0018751853703658772
-0.00017603249419540382
-0.000163790052112151
-0.0033048706085512724
-0.006806039319159746
-0.007725100728542055
-0.02830976070853263
-0.01301299098203169
-0.04238771879978037
-0.003929268617353147
-0.0012617929249833792
-0.0008573515800651561
-0.03896612050306391
-0.03608938861148058
-0.03987898348182373
-0.015470365136937725
-0.0014511395734506712
-0.0013104459761971432
-0.0403834689910932
-0.0007307390497083483
-0.006125921239396609
-0.0006308820995528107
-0.03710917307418318
-0.02545844819317562
-0.006369146941999704
-0.0005424846508605594
-0.036765982902000394
-0.0006369868549136644
-0.013276263777519969
-0.0015347272579210333
-0.0008009520926699707
-0.04105889572295628
-0.002296019469468606
-0.02688336006244411
-0.0008595122704035532
-0.00039275998722584807
-0.00024461128607416977
-0.022057603655882427
-0.018477668958810575
-0.01987723629088402
-0.011448852234472506
-0.031385405255721976
-0.003144829123760651
-0.04491806796758349
-0.0017884462919544957
-0.005805140225437644
-0.017091746157143137
-0.011211808667930518
-0.006012762660873594
-0.009487330230210915
-0.036715716742557546
-0.005287953769604539
-0.00750726686397893
-0.005003090680196214
-0.00010046849039878826
-8.890620010918837e-05
-9.223190325498724e-05
-0.02438515769593257
-0.0035946928958181215
-0.024827756037462043
-0.00010543649645831083
-0.006914999154045071
-0.019653577660540846
-0.0060422983204225554
-0.016100730074203394
-0.015072341664807474
-0.005647453973447458
-0.01662408230849732
-0.004415805067737725
-0.025733953330546
-0.015381410270830937
-0.032414656615354503
-0.0015739987948246326
-0.023537295134577405
-0.0015374669464798926
-0.028223467519670496
-0.02340247759173403
-0.001975383445501457
-0.025769459198652537
-0.0015467857243238517
-0.03042636955217375
-0.029276023307055116
-0.002098851150378305
-0.0015993131346837438
-0.003919883028300544
-0.011881867492441823
-0.0027845642658343474
-0.03435184918806996
-0.0016612580756013926
-0.04313999924733006
-0.00099269391505719
-0.0035221050253568006
-0.022018485660349866
-0.00010631089994162107
-0.02305507189996883
-0.00011180337317563011
-0.001280327522997896
-0.00011106302776856714
-0.020672083097504856
-0.00012553981343934253
-0.006534658916991496
-0.007074169956264788
-0.02404010276762314
-0.002101521438326568
-0.00011261317979887155
-0.022311078512906358
-0.00012537386886844135
-0.024263490700021238
-0.0022257976495160753
-0.00013322488321636643
-0.00013044578728128924
-0.015211912351188475
-0.015442756805604032
-0.0011527110170714138
-0.03673427907424017
-0.0012956126894175138
-0.0046251529018089
-0.0019375105782222623
-0.04464980111509637
-0.004346561680861677
-0.019921706946032052
-0.002316197474080191
-0.03265675308792887
-0.0025990299162823717
-0.0039178792789669025
-0.017152502728242633
-0.0033668885648729867
-0.012882865910030733
-0.03948367451892017
-0.04189060643008514
-0.00669854333981841
-0.016361857057862434
-0.005124234598714352
-0.03205829351599166
-0.01591293997318025
-0.00019472106283855754
-0.00019860224582393448
-0.01133140940326563
-0.0019805232459127503
-0.03976583161231271
-0.0026159747498348406
-0.027503939182163345
-0.0026579948870789024
-0.025762546366652556
-0.0026610101625595436
-0.008916750964503544
-0.022728186281301677
-0.016949194949137193
-0.008940437094511018
-0.009774150415087958
-0.030966296816345936
-0.00026531615695836236
-8.678970380235368e-05
-0.017190579717323046
-0.00016806133808014857
-0.017269470837182496
-0.04265942967225765
-0.008327025718659802
-0.013530576686692294
-0.00961405795401764
-0.005464037611289238
-8.514171774534226e-06
-0.0073331956554457565
-0.01765016037923907
-0.016312244541950068
-7.809687459620462e-06
-1.0086166035553222e-05
-1.1109619917884277e-05
-0.020409291893782815
-0.002760652952884578
-0.0028775386401819966
-0.014525328965594705
-0.011312901999048813
-0.0023843329684523724
-0.0021776104550637852
-0.029560670925121657
-0.01316689610430454
-0.00525850282947274
-0.020379022077920483
-0.004713098981967082
-0.010408935374304271
-0.03418539032513101
-0.012669953722847887
-0.001528652305507597
-0.03888800868315182
-0.0018625851270330882
-0.026679451764233
-0.0041756113345595095
-0.03293344504819988
-0.0055917390644638736
-0.0290295128977798
-0.013066452016109372
-0.002903904208068027
-0.03727991078554846
-0.003960883706756267
-0.03613807238502932
-0.013011575073341542
-0.00032749296861286085
-0.00032460650970133936
-0.041654102922718796
-0.012920692651651078
-0.0017753938469941436
-0.0015112576735841956
-0.01802787303763021
-0.008545553174851811
-0.020525094438505285
-0.03386992389122376
-0.00703863615674984
-0.004861934669056038
-0.008981305132906868
-0.021769063069350884
-0.010581323245849303
-0.005916465330413277
-0.0039447681825335364
-0.012692043904407155
-0.003412596598066925
-0.020349751628706083
-0.0030980830529572677
-0.006026050450383992
-0.0020357410501796428
-0.0037910953653620565
-0.02907449301540132
-0.03598529075063864
-0.01911740540057628
-0.002281852539419617
-0.0020546460576597726
-0.008414134232322961
-0.00035983336157084276
-0.03408533720242912
-0.00039079457740649135
-0.03653623826379911
-0.006838956986869123
-0.0003907537908185181
-0.0003730193980997702
-0.012726925659446891
-0.00733842169913068
-0.01889497921940353
-0.005547832147177622
-0.002721369383232268
-0.00680336346190906
-0.02329156304172453
-0.0007063420092065458
-0.0002264936185974262
-0.00015842419631265057
-0.024460323059557778
-0.009625930819573506
-0.03028309607494227
-0.0001959682938251997
-0.00020612996010931962
-0.023408734682433745
-0.0031054671951990273
-0.028288162904512075
-0.0032960437650626758
-0.015746081606863076
-0.008467056845319882
-0.002090461839443284
-0.04254688954276125
-0.003180890746376933
-0.04449572015308306
-0.002453897616468378
-0.0077362485922198455
-0.001689431165484455
-0.03133902164258567
-0.014081042241212267
-0.03993402857673664
-0.03789733984860067
-0.0006712518672995592
-0.016762200832549812
-0.0006532583943651649
-0.006715495544279228
-0.0026762144918335614
-0.040512379891659143
-0.006171838787874465
-5.664193841348922e-05
-0.022828505071181737
-5.9614767143490146e-05
-0.020749290940778535
-0.003610618308721303
-4.032782787152411e-05
-4.3006896412913334e-05
-0.026336732019427298
-0.005567898782386382
-0.0033548121994948633
-0.010137016492815848
-0.02773850030569833
-0.0009785663479938448
-0.02826784065348227
-0.0010002438009874964
-0.007934133042317163
-0.0006784798553397861
-0.001214111991314768
-0.01536495049168234
-0.013560752313323503
-0.004124050149226593
-0.024398301309455587
-0.004107740587862109
-0.00042649282344216395
-0.00011217407216500126
-0.020224267722966833
-0.00018383655410382876
-0.022318315664892806
-0.0443232948427605
-0.04241608310079612
-0.005735233093062722
-0.0014698697820126271
-0.04404677122731746
-0.002333475638614085
-0.041052481269141766
-0.0008868266012718065
-0.0046638066116205
-0.0006964077624913982
-0.019996915681083458
-0.0002596415452046082
-0.029188955594595625
-0.00026914437929265503
-0.01595693869670305
-0.019004770496029
-0.0005914298096251257
-0.03324539067996553
-0.0006206063713070668
-0.03463110644874615
-0.008011271919854299
-0.002497062866367434
-0.004263116992307078
-0.030244108695644745
-0.00048827690357726867
-0.024891749843343067
-0.0004935909306343036
-0.004101697959981497
-0.002715922630013053
-0.010316460965080989
-0.008434880525651544
-0.004710681260491728
-0.0005841849167784086
-0.03847076733982029
-0.0008329264844521694
-0.015371844362145873
-0.0005397672081205524
-7.272328711005917e-05
-6.2539660154809e-05
-0.00322729908759695
-0.006068056367423913
-0.014134748094105549
-0.005702051900139873
-0.009993137601480013
-0.020354750711517624
-0.009278294559635582
-0.01135242597339821
-0.0034937593029019023
-0.005410551835820172
-0.0004932659388723433
-9.022839839491481e-05
-0.0183296438235762
-0.0001198171667596621
-0.006597931997549081
-0.0065230592543000085
-0.003672534637815556
-0.009767627178195053
-0.03387094518441515
-0.019201450965568276
-0.000345940958838251
-0.0003471502055929532
-0.007555329448786234
-0.04063712987865958
-0.003148826170860296
-0.0013524862332500336
-0.04462674418893208
-0.0030962009491160964
-0.01887165485524268
-0.01539938857279804
-0.008865102963099902
-0.038076743705850354
-0.005246828945961184
-0.024618361510863256
-0.005459209532359784
-0.00358323307614776
-0.034088554196773604
-0.0046887978826174
-0.017730199946749205