# vtk DataFile Version 1.0
2D Simulation C++
ASCII
DATASET UNSTRUCTURED_GRID
FIELD FieldData 1
NODES 1 2 int
2209 4256

POINTS 2209 double
0.0 0.0 0.0
0.0 1.0 0.0
1.0 1.0 0.0
1.0 0.0 0.0
0.0 0.02500000037252903 0.0
0.0 0.05000000074505806 0.0
0.0 0.07500000298023224 0.0
0.0 0.10000000149011612 0.0
0.0 0.125 0.0
0.0 0.15000000596046448 0.0
0.0 0.17499999701976776 0.0
0.0 0.20000000298023224 0.0
0.0 0.22499999403953552 0.0
0.0 0.25 0.0
0.0 0.2750000059604645 0.0
0.0 0.30000001192092896 0.0
0.0 0.32499998807907104 0.0
0.0 0.3499999940395355 0.0
0.0 0.375 0.0
0.0 0.4000000059604645 0.0
0.0 0.42500001192092896 0.0
0.0 0.44999998807907104 0.0
0.0 0.4749999940395355 0.0
0.0 0.5 0.0
0.0 0.5249999761581421 0.0
0.0 0.550000011920929 0.0
0.0 0.574999988079071 0.0
0.0 0.6000000238418579 0.0
0.0 0.625 0.0
0.0 0.6499999761581421 0.0
0.0 0.675000011920929 0.0
0.0 0.699999988079071 0.0
0.0 0.7250000238418579 0.0
0.0 0.75 0.0
0.0 0.7749999761581421 0.0
0.0 0.800000011920929 0.0
0.0 0.824999988079071 0.0
0.0 0.8500000238418579 0.0
0.0 0.875 0.0
0.0 0.8999999761581421 0.0
0.0 0.925000011920929 0.0
0.0 0.949999988079071 0.0
0.0 0.9750000238418579 0.0
0.02500000037252903 1.0 0.0
0.05000000074505806 1.0 0.0
0.07500000298023224 1.0 0.0
0.10000000149011612 1.0 0.0
0.125 1.0 0.0
0.15000000596046448 1.0 0.0
0.17499999701976776 1.0 0.0
0.20000000298023224 1.0 0.0
0.22499999403953552 1.0 0.0
0.25 1.0 0.0
0.2750000059604645 1.0 0.0
0.30000001192092896 1.0 0.0
0.32499998807907104 1.0 0.0
0.3499999940395355 1.0 0.0
0.375 1.0 0.0
0.4000000059604645 1.0 0.0
0.42500001192092896 1.0 0.0
0.44999998807907104 1.0 0.0
0.4749999940395355 1.0 0.0
0.5 1.0 0.0
0.5249999761581421 1.0 0.0
0.550000011920929 1.0 0.0
0.574999988079071 1.0 0.0
0.6000000238418579 1.0 0.0
0.625 1.0 0.0
0.6499999761581421 1.0 0.0
0.675000011920929 1.0 0.0
0.699999988079071 1.0 0.0
0.7250000238418579 1.0 0.0
0.75 1.0 0.0
0.7749999761581421 1.0 0.0
0.800000011920929 1.0 0.0
0.824999988079071 1.0 0.0
0.8500000238418579 1.0 0.0
0.875 1.0 0.0
0.8999999761581421 1.0 0.0
0.925000011920929 1.0 0.0
0.949999988079071 1.0 0.0
0.9750000238418579 1.0 0.0
1.0 0.9750000238418579 0.0
1.0 0.949999988079071 0.0
1.0 0.925000011920929 0.0
1.0 0.8999999761581421 0.0
1.0 0.875 0.0
1.0 0.8500000238418579 0.0
1.0 0.824999988079071 0.0
1.0 0.800000011920929 0.0
1.0 0.7749999761581421 0.0
1.0 0.75 0.0
1.0 0.7250000238418579 0.0
1.0 0.699999988079071 0.0
1.0 0.675000011920929 0.0
1.0 0.6499999761581421 0.0
1.0 0.625 0.0
1.0 0.6000000238418579 0.0
1.0 0.574999988079071 0.0
1.0 0.550000011920929 0.0
1.0 0.5249999761581421 0.0
1.0 0.5 0.0
1.0 0.4749999940395355 0.0
1.0 0.44999998807907104 0.0
1.0 0.42500001192092896 0.0
1.0 0.4000000059604645 0.0
1.0 0.375 0.0
1.0 0.3499999940395355 0.0
1.0 0.32499998807907104 0.0
1.0 0.30000001192092896 0.0
1.0 0.2750000059604645 0.0
1.0 0.25 0.0
1.0 0.22499999403953552 0.0
1.0 0.20000000298023224 0.0
1.0 0.17499999701976776 0.0
1.0 0.15000000596046448 0.0
1.0 0.125 0.0
1.0 0.10000000149011612 0.0
1.0 0.07500000298023224 0.0
1.0 0.05000000074505806 0.0
1.0 0.02500000037252903 0.0
0.9750000238418579 0.0 0.0
0.949999988079071 0.0 0.0
0.925000011920929 0.0 0.0
0.8999999761581421 0.0 0.0
0.875 0.0 0.0
0.8500000238418579 0.0 0.0
0.824999988079071 0.0 0.0
0.800000011920929 0.0 0.0
0.7749999761581421 0.0 0.0
0.75 0.0 0.0
0.7250000238418579 0.0 0.0
0.699999988079071 0.0 0.0
0.675000011920929 0.0 0.0
0.6499999761581421 0.0 0.0
0.625 0.0 0.0
0.6000000238418579 0.0 0.0
0.574999988079071 0.0 0.0
0.550000011920929 0.0 0.0
0.5249999761581421 0.0 0.0
0.5 0.0 0.0
0.4749999940395355 0.0 0.0
0.44999998807907104 0.0 0.0
0.42500001192092896 0.0 0.0
0.4000000059604645 0.0 0.0
0.375 0.0 0.0
0.3499999940395355 0.0 0.0
0.32499998807907104 0.0 0.0
0.30000001192092896 0.0 0.0
0.2750000059604645 0.0 0.0
0.25 0.0 0.0
0.22499999403953552 0.0 0.0
0.20000000298023224 0.0 0.0
0.17499999701976776 0.0 0.0
0.15000000596046448 0.0 0.0
0.125 0.0 0.0
0.10000000149011612 0.0 0.0
0.07500000298023224 0.0 0.0
0.05000000074505806 0.0 0.0
0.02500000037252903 0.0 0.0
0.5047442753007855 0.505354267213131 0.0
0.7122538205857827 0.7035275048309017 0.0
0.7038923205812229 0.2942875642826016 0.0
0.2975016835947996 0.708238677079557 0.0
0.2944602871969298 0.2981518923942986 0.0
0.7782938822137621 0.5040070134432777 0.0
0.5028808698636241 0.22319446667870382 0.0
0.49368856366580716 0.7810769368145427 0.0
0.2232871264201179 0.4988135602677913 0.0
0.827915989238129 0.8229653302007011 0.0
0.8229566169063529 0.17300631174785422 0.0
0.17914829925821388 0.8285714126094977 0.0
0.17324564954750354 0.1793925006231898 0.0
0.6440971449906666 0.5669920575236822 0.0
0.5643451837366065 0.3682178914893298 0.0
0.4411763721787636 0.6372581661020383 0.0
0.36262726518303784 0.43192103833110546 0.0
0.8474786335606498 0.6431827371801839 0.0
0.6441886443615382 0.15513677943384066 0.0
0.3524274065530102 0.8441178365935161 0.0
0.15509895571521493 0.35796820696943255 0.0
0.6471022970689873 0.8449078901566155 0.0
0.844411063721792 0.3577059634342165 0.0
0.15766821632393363 0.6443256798549308 0.0
0.35868700412031973 0.15782179995161608 0.0
0.6741066715684809 0.4475688514197519 0.0
0.5845216931218958 0.6795932524065946 0.0
0.44678294807803975 0.32451874693241406 0.0
0.32926768255843863 0.5596058805576025 0.0
0.8851231387750027 0.5311967553644048 0.0
0.5317357956981806 0.11328328711291577 0.0
0.4685850825424871 0.8887322529054591 0.0
0.1130923810520236 0.47044600521610896 0.0
0.898701549904665 0.7418195930899968 0.0
0.741857621785757 0.10354537565056231 0.0
0.2605859552871287 0.898041777523975 0.0
0.10387736922860649 0.2604517662844526 0.0
0.743136912050486 0.8864109514118379 0.0
0.11691029540788768 0.7432564019400206 0.0
0.8856790071313909 0.2586116550927644 0.0
0.2583793915757705 0.11727818892716524 0.0
0.744014601911377 0.6044086036483975 0.0
0.6102674608128901 0.25127527486425283 0.0
0.39609579063617545 0.750382773024748 0.0
0.25400706831892206 0.3968694995548582 0.0
0.5230179383663386 0.5947128832072657 0.0
0.8996381429305469 0.888277638552978 0.0
0.8876428901575679 0.10218685540897086 0.0
0.11442940928174694 0.8999124251239539 0.0
0.10246737437755658 0.11434856007319634 0.0
0.762935810273641 0.3905305316270308 0.0
0.23957704177830416 0.6132417821375957 0.0
0.3900483429802321 0.2389089518597349 0.0
0.9002062851428797 0.43750089268843945 0.0
0.43742961227819255 0.10246236028402969 0.0
0.5655756485088754 0.8982561934233377 0.0
0.10265005712818677 0.5652493870414335 0.0
0.7888153283769924 0.7430907311445716 0.0
0.743477261378847 0.2120718959440404 0.0
0.258258496515448 0.7897574023768071 0.0
0.2122214727175001 0.2585564004596393 0.0
0.7191928010130844 0.8028335969285123 0.0
0.7964601789216039 0.28424907686481016 0.0
0.20525435822923463 0.7182199454006595 0.0
0.28852351716153596 0.20224008165917878 0.0
0.5940670747804337 0.4961520927233505 0.0
0.49081817925880245 0.4148642102995214 0.0
0.42482271989787207 0.5496491099496112 0.0
0.6318941055784997 0.7612993570776985 0.0
0.6530089313909715 0.3541996521005486 0.0
0.4966302823380491 0.6956185484407917 0.0
0.35451525451328036 0.645288699870538 0.0
0.34943184678527883 0.3511791740581947 0.0
0.9165914492016684 0.8168823614464328 0.0
0.8168000788375317 0.0849790879660437 0.0
0.18477670860209058 0.9168408478661823 0.0
0.08486970442802408 0.18523351708835048 0.0
0.8275299883775177 0.9133589778912088 0.0
0.08882090881765224 0.8275922823729621 0.0
0.9131272100447239 0.1745141060294798 0.0
0.17422001573662735 0.08913118166061723 0.0
0.6996824028808449 0.5176625738821194 0.0
0.6506193253044914 0.6508276614361139 0.0
0.5134945087240793 0.305759495839546 0.0
0.30075733854825004 0.4871643307771392 0.0
0.9199522407189334 0.6074125439884069 0.0
0.6132548500759063 0.0852794481397874 0.0
0.39777591770421106 0.9220884613302195 0.0
0.08354139123935254 0.38918927314540724 0.0
0.6628767195573749 0.9217226279247174 0.0
0.08050748545660076 0.6624732829085687 0.0
0.9216531737753366 0.3394264052537176 0.0
0.33934828806210315 0.08051179532046857 0.0
0.8234825854433023 0.4357628461066262 0.0
0.567719104784072 0.820115890223494 0.0
0.4355350498937737 0.17825049459451595 0.0
0.17882236578950286 0.5669750279893119 0.0
0.4338825332042326 0.46187652808016283 0.0
0.8213533407835855 0.5692244207799166 0.0
0.5686833319196514 0.18127535305251993 0.0
0.4326021584785334 0.8212944591968504 0.0
0.18123850408355405 0.4334507546176702 0.0
0.7730873241924684 0.6679533070896272 0.0
0.6693334527533294 0.2254620675903568 0.0
0.3329826514750004 0.7776651562150984 0.0
0.22558176056886517 0.33367160697100917 0.0
0.9302923299601823 0.6841609280847639 0.0
0.6846658974742775 0.07241106023061844 0.0
0.31473325128850743 0.9276835649583417 0.0
0.0742121925296412 0.31429273346432035 0.0
0.5622238723261678 0.7441349277231337 0.0
0.6022794253488121 0.4197063245742261 0.0
0.37559962936515845 0.5024367158494032 0.0
0.7348850312505056 0.45717783748445157 0.0
0.4554759321603701 0.2657240943115488 0.0
0.267743753372325 0.5455070020830317 0.0
0.5883058953462516 0.6166192159670667 0.0
0.4182712064652615 0.39094892028737543 0.0
0.5721117944877306 0.5441774933643887 0.0
0.5480489416402806 0.45013440710999336 0.0
0.9359678945703863 0.4968042403046101 0.0
0.4985188360994733 0.06657370489090347 0.0
0.5031730976118102 0.9345823154477324 0.0
0.06648393194195969 0.503892902737716 0.0
0.8478591892345261 0.498123138463641 0.0
0.4975256589495999 0.15412299602939053 0.0
0.500761368502266 0.8452955767354536 0.0
0.15422060112803626 0.5046299671710928 0.0
0.8460926137901812 0.6973193994032442 0.0
0.6980207936150932 0.1557739305929914 0.0
0.30302067861051035 0.8453554135536482 0.0
0.15602349457686804 0.304238131177489 0.0
0.7692233907632824 0.8401889297189856 0.0
0.8388724423698897 0.23151616421036153 0.0
0.16337213410524154 0.7706923086668221 0.0
0.23053144716608928 0.1634799540912213 0.0
0.76343593150278 0.326824453473165 0.0
0.2387358689648207 0.6764943134418516 0.0
0.3258259313330272 0.23963909659638202 0.0
0.6406888750014167 0.3012725233358835 0.0
[...]
POINT_DATA 2209
SCALARS Psi double
LOOKUP_TABLE default
0.0
0.0
0.0
0.0
0.0
0.0
0.0
0.0
0.0
0.0
0.0
0.0
0.0
0.0
0.0
0.0
0.0
0.0
0.0
0.0
0.0
0.0
0.0
0.0
0.0
0.0
0.0
0.0
0.0
0.0
0.0
0.0
0.0
0.0
0.0
0.0
0.0
0.0
0.0
0.0
0.0
0.0
0.0
0.0
0.0
0.0
0.0
0.0
0.0
0.0
0.0
0.0
0.0
0.0
0.0
0.0
0.0
0.0
0.0
0.0
0.0
0.0
0.0
0.0
0.0
0.0
0.0
0.0
0.0
0.0
0.0
0.0
0.0
0.0
0.0
0.0
0.0
0.0
0.0
0.0
0.0
0.0
0.0
0.0
0.0
0.0
0.0
0.0
0.0
0.0
0.0
0.0
0.0
0.0
0.0
0.0
0.0
0.0
0.0
0.0
0.0
0.0
0.0
0.0
0.0
0.0
0.0
0.0
0.0
0.0
0.0
0.0
0.0
0.0
0.0
0.0
0.0
0.0
0.0
0.0
0.0
0.0
0.0
0.0
0.0
0.0
0.0
0.0
0.0
0.0
0.0
0.0
0.0
0.0
0.0
0.0
0.0
0.0
0.0
0.0
0.0
0.0
0.0
0.0
0.0
0.0
0.0
0.0
0.0
0.0
0.0
0.0
0.0
0.0
0.0
0.0
0.0
0.0
0.0
0.0
-0.01561478067275839
-0.026229898041266308
-0.005050032581501747
-0.025035885789380468
-0.005006384918493584
-0.009533681548865415
-0.004393703049995747
-0.03867770000606609
-0.008921341545417528
-0.03173013594042143
-0.0013657462278428877
-0.02739262547137265
-0.001364666030419575
-0.01777541098175305
-0.008948857946798632
-0.024105673659306163
-0.010478320584806182
-0.011163453521167339
-0.0023124666072199328
-0.04183314538011734
-0.0032271534698107376
-0.044725276194014923
-0.0033689341909770086
-0.010582554167868219
-0.0023521420122111837
-0.010661762079271124
-0.027989917824033317
-0.0073672838352227
-0.01583149026547585
-0.004613310568574204
-0.0016212873223298216
-0.04659473094579812
-0.0033351250880599326
-0.010864580569429209
-0.0009602553163262352
-0.04031034083408128
-0.0011342078668289432
-0.04451419592774728
-0.011268070922650985
-0.0013415011265916449
-0.0011437303579534574
-0.01630109854170741
-0.004859102890154808
-0.03347828630024274
-0.0067825180452058
-0.021403072246119464
-0.028754808176111705
-0.00031936440409220657
-0.025753647369482942
-0.00032167825060980726
-0.006383385775640191
-0.014787890790162564
-0.004470096984890357
-0.0025336172443336203
-0.0013543278971474353
-0.046601526517464784
-0.004204246155817152
-0.025000898958763063
-0.002767669693636005
-0.030565935367131834
-0.0029259653298924103
-0.03758707719024555
-0.0032955014142269654
-0.019201239530924476
-0.0028268387534036606
-0.014525982748600882
-0.011047824977820263
-0.01760494769667479
-0.03560120182708694
-0.007538459657638477
-0.02986389743899613
-0.022438281313478824
-0.007322420535980416
-0.01412542600483147
-0.00047441521970442295
-0.03557083303337728
-0.000503067750398568
-0.03995213085620751
-0.012606804536969619
-0.0004889870551946495
-0.0004672595517089976
-0.013243742152538766
-0.02386990641418549
-0.006894894034205977
-0.011294787346900568
-0.003674127307208243
-0.0009518398624733336
-0.04265401116010886
-0.0014486045476939853
-0.04317322523737249
-0.00437398244193228
-0.001106266643048385
-0.000794742181782636
-0.0055345440606702385
-0.0430870769104278
-0.0031071027593488343
-0.009033414292719345
-0.012871977544160055
-0.009770100346595603
-0.0031910861216951246
-0.04207114030651873
-0.005409122511537314
-0.01906131109553662
-0.0037584918235964806
-0.03385436367132638
-0.004554489896331539
-0.004340007802272648
-0.0006396197583387667
-0.03950885445902255
-0.0008553118722164345
-0.034741451832680875
-0.010713848671401231
-0.013978215791342953
-0.009366573541241228
-0.0055424232421702295
-0.012735395949184934
-0.022552820106777578
-0.009606726570702497
-0.017636791073864278
-0.01258392807620106
-0.0015988682636012387
-0.0006911705344254535
-0.03985052794240467
-0.0016616100561313645
-0.005955482575350686
-0.0025921633256519843
-0.04525407370154723
-0.005884391661246007
-0.014590895695858088
-0.0020634426669360307
-0.03963667732823828
-0.0025396117919867928
-0.03959920556457674
-0.0018410235509872996
-0.019174459372328916
-0.0016692285913071205
-0.00478655251046955
-0.018707719499163722
-0.0039724625331162755
-0.00602796471424628
-0.027765072445499556
-0.006845554595610036
-0.04137514239232698
-0.0011515880636353776
-0.0028757425630296257
-0.000714167154002198
-0.020012009997386147
-0.030431898806604993
-0.017382173554072084
-4.288067525686231e-05
-0.02229591778620512
-4.2356446863420594e-05
-0.019169088128874655
-0.0017402087778969995
-0.0005571563326431706
-0.03820370414110941
-0.0010735096519053505
-0.0061030970729002735
-0.00039515045232916385
-0.0350574135558238
-0.0004411807021725393
-0.0366065965850346
-0.0049713204767455246
-0.0004193314091492367
-0.00037164278965800944
-0.021774021451483886
-0.001580247471748354
-0.03475227656948103
-0.0017066732513165604
-0.04425590586805871
-0.002558683039193069
-0.012437579860624486
-0.002031839369915687
-0.021475900151559844
-0.014567179985024633
-0.008933006962160343
-0.01261094268088635
-0.006726874662876226
-0.029443415481089252
-0.009133651429791907
-0.018272457528511626
-0.005081459965520551
-0.008484992881845803
-0.012963185848052165
-0.0001609405076114501
-0.029184843302921797
-0.00016467162517744272
-0.033877516309227564
-0.009854473474499777
-0.00019782239748447785
-0.00019413380804260766
-0.025922737231792805
-0.008206764220229472
-0.006411440210406608
-0.017641417191192273
-0.035055261188623316
-0.007302450108047316
-0.0020612625603821924
-0.045574432690133726
-0.00342124492782012
-0.028453726704887987
-0.003668376447764387
-0.025778257426735077
-0.003614729912680697
-0.034085830891070354
-0.014064636947086429
-0.0036904295388921066
-0.037972772781157633
-0.005189202058951394
-0.03785486512234108
-0.0037975452164731587
-0.0005456425381024239
-0.00044568932371168455
-0.027893706317024466
-0.0006706825055362802
-0.02986420112829438
-0.0006778187426212171
-0.005438089629548644
-0.0035143589078946206
-0.011881983086748463
-0.024564994222711686
-0.030595787832806417
-0.002092492010522568
-0.027251723172765516
-0.0020781773648576364
-0.00633386944459563
-0.020466881198928682
-0.0054852107433896865
-0.002603359695600672
-0.046925358736826066
-0.0016373702783564685
-0.0065367571726830465
-0.04106930191112127
-0.02594649862437913
-0.03962830097989848
-0.015285065762794037
-0.020965974130023907
-0.0038891153602091787
-0.015443027348760996
-0.002995329804142846
-0.010402010116983133
-0.007254823990038504
-0.008520503738959831
-0.0008249955692667859
-0.00044709694685294177
-0.035300428828876934
-0.0014291703503520501
-0.040339046795449716
-0.01843367419366437
-0.00112765400573238
-0.001054564058149213
-0.0035323018501860664
-0.0016018251209999755
-0.04693341794632883
-0.0039899931891836885
-0.0073656622254795355
-0.004415339124780237
-0.01196162584380529
-0.012925146626821428
-0.015788160850343576
-0.009243365656029044
-0.001516319952545353
-0.0431686490100138
-0.0020217467177445513
-0.0022192776651075805
-0.00023125974918060933
-0.027139657788632823
-0.00024129450649887973
-0.0012485402717474212
-0.00025500130392692695
-0.030895162315123313
-0.00044038162599726265
-0.009189203202893754
-0.030285239340010348
-0.009660969264283671
-0.012294562681455337
-0.016693950958366156
-0.032197201592094674
-0.020787807607990635
-0.0010148068232751343
-0.035282330644951426
-0.001079787448097301
-0.02402655652930151
-0.004014451386395729
-0.029073891228659467
-0.004319421796340512
-0.03575550675804143
-0.0005411836796318091
-0.021665930768382635
-0.0005322811875366784
-0.015944910799185013
-0.007833248469540031
-0.03363620235592899
-0.018365947002495824
-0.0116882331718037
-0.013530753400358876
-0.03954391241772983
-0.009014207261082546
-0.011032500070321891
-0.016533023572874613
-0.010859285525370055
-0.011252927512048299
-0.005597548879617464
-0.006622703165650855
-0.010923706200803034
-0.02126429985848956
-0.025183096202646617
-0.004664374337399865
-0.00015900958527258424
-0.02833096609830471
-0.00016881528642952794
-0.031820363524307525
-0.00447983325850599
-0.0002149518893599168
-0.0002014864738575886
-0.012329434240905466
-0.013083905251385667
-0.018622374447315748
-0.0043703511322330316
-0.006776016765515679
-0.007085642653710162
-0.0026272049342212335
-0.042539769834493674
-0.005137807242921155
-0.04636882802639542
-0.008385939475367688
-0.0021463491169992936
-0.001561016496597271
-0.029595578045750925
-0.0013075017874530678
-0.00036970228660467453
-0.00025450676313686207
-0.00115715002827636
-0.0003637304676254494
-0.02944338778579625
-0.0006037670347309685
-0.004534899756466893
-0.0023180387358606026
-0.04615982034079083
-0.006386959497110049
-0.008961710429440158
-0.0040430161283489825
-0.04515040700240221
-0.0024726369496596355
-0.00871481954092955
-0.004807768043828239
-0.03189649250115308
-0.006037041855574392
-0.04287905419047908
-0.011617608325519954
-0.0008677155583705925
-0.0007874133558693308
-0.027488832943916127
-0.012837529368500784
-0.0007077961390709076
-0.03806215059577622
-0.0007852799123714429
-0.007646442749919875
-0.0016646275161622062
-0.044748408328884014
-0.0024227446353407263
-0.011337805044294906
-5.336183915080322e-05
-0.022773133442732196
-5.430161889102804e-05
-0.0068859879694955555
-0.024220207740274047
-4.6165815084565566e-05
-4.6606093189058515e-05
-0.03745313296695659
-0.015908755511496057
-0.0028536446728885593
-0.03771958728307644
-0.0036000816444894373
-0.04534086110047668
-0.007428829294020848
-0.0013731942012684452
-0.0010698814970866955
-0.02506368192661899
-0.006242502883710189
-0.023788733005694913
-0.006164959188087437
-0.004121649105178975
-0.007423689921235328
-0.010511369680637846
-0.007992085392452474
-0.007071901395434259
-0.003508085369415368
-0.008427518136141407
-0.0035649595822905486
-0.0011101011714043886
-0.04488458155656515
-0.0020420876373191802
-0.045243150466503575
-0.014192049334858264
-0.01562033154457157
-0.019420880820199653
-0.018834678060642648
-0.005943937659990281
-0.007568237263377114
-0.010258427382474672
-0.0026659989697770197
-0.042463352297828716
-0.004059147014784814
-0.005077455444485384
-0.003721880973246052
-0.015102454084290937
-0.03719269404613377
-0.01248052284227
-0.021111947668930504
-0.003132684188206773
-0.03311391125974231
-0.0035649154763440654
-0.0007177609961134695
-0.00026516315248325726
-0.028364847781184005
-0.0005814833784098992
-0.02052934278088366
-0.021317896701534788
-0.029873088301063378
-0.013073001778410937
-0.009411625354628894
-0.006330797597653908
-0.015082368956145857
-0.025604686328932296
-0.03208273908952565
-0.041476216100211113
-0.0022088723595804815
-0.016578342586963838
-0.0019005070467978855
-0.03393724330451567
-0.002628785741391926
-0.023707414130245335
-0.0024764077141182276
-0.016933595571070076
-0.0016484944335463
-0.038121022792042956
-0.00189186435268469
-0.007751101081179178
-0.0009076692904575488
-0.041357104677488744
-0.0011648823522733172
-0.008964888530410138
-0.004826573178458635
-0.010933746817248926
-0.028527432726820224
-0.005045487508526844
-0.028630325745634923
-0.00561876023879748
-0.012264646839381952
-0.00789335363066538
-0.0013150262530437387
-0.00019341596137935438
-0.024245659106311115
-0.00021941244378464046
-0.010953886042182405
-0.01015777489372133
-0.023229065366546453
-0.004871620231371973
-0.0009367605853716688
-0.042315032668096546
-0.0012903313461089267
-0.004473923344918813
-0.022726946082981352
-0.004143727297015324
-0.02021405368135634
-0.0003586556186829895
-0.0315032531751603
-0.00036778606753587397
-0.02783818496967044
-0.0014316576844878252
-0.000276681064516708
-0.00021158966056734072
-0.0005186184070328896
-0.00023600934574380625
-0.026519060429263625
-0.0006064646784475072
-0.0024275606714124634
-0.0008473162166708522
-0.04235379415367228
-0.001796503448135254
-0.010687804927608848
-1.8062788165756485e-06
-0.012556327751591025
-2.00331041212076e-06
-0.022216355526591926
-0.007988668346931564
-0.005367102011381126
-0.014790583632718452
-0.035636190730593265
-0.0008368412105829333
-0.023492144145763696
-0.0008223851521350486
-0.026080551102813154
-0.0018614139944956474
-0.00018407039665669907
-0.00015866653581483338
-0.003433194844445764
-0.007059495773295127
-0.008119449681628218
-0.030168927132521645
-0.013717787977560037
-0.043789785724620355
-0.003996707713997302
-0.0012990411369911976
-0.000866365814634118
-0.04118303418975253
-0.03838259039743136
-0.0421991492863449
-0.016031605632789877
-0.0014994080183006835
-0.001335722547651464
-0.041795873931866206
-0.0007517475986965615
-0.0062299949288492215
-0.0006349070565258889
-0.03919122895433272
-0.026933660714343905
-0.006821298270856262
-0.000546375236624978
-0.03762328433723059
-0.0006327047648875158
-0.014015308405667589
-0.0015954701142853183
-0.0008038138062713133
-0.04224982114803194
-0.0023099093644038983
-0.027821005533868143
-0.0008530343591813684
-0.00041878379500938264
-0.0002391227288557671
-0.023361532318298718
-0.019479012962970103
-0.02108105913009957
-0.012066990699120622
-0.03313305107605226
-0.003266851475862843
-0.046995571024714224
-0.0018417281062863302
-0.005960574408755631
-0.018161144761286687
-0.01184209396079609
-0.006306584808260723
-0.009925079911831978
-0.03894436516245171
-0.005539311233117291
-0.007832865387035655
-0.005483647247118219
-9.71057435146814e-05
-9.207785319645442e-05
-8.80737462593718e-05
-0.025236180716914292
-0.003580618476920159
-0.02527046100866327
-0.00010140344742020962
-0.0072845075584400745
-0.020621810176074076
-0.006316660530414448
-0.016976365492089005
-0.015935017132624008
-0.005926921508786317
-0.017366976756887163
-0.004601983186258795
-0.02719260091789353
-0.01619748581697359
-0.03461836627467895
-0.001622792727029356
-0.024462201725019606
-0.0015672794993507565
-0.030129253945402733
-0.025049142644902992
-0.0020429988342972197
-0.02758658561825917
-0.0015894118315605394
-0.0317728736542456
-0.03047044416296287
-0.0021493330251983753
-0.001634031439477778
-0.004089331518400811
-0.012324607265421365
-0.0028814795702821775
-0.036305906795609244
-0.0017199425853262939
-0.04460048640277401
-0.0010037804203479879
-0.0035796700481922146
-0.02260991669479889
-0.00010484838753803063
-0.023136610806757437
-0.00010605287576158363
-0.0014051307102590637
-0.00010655482236541595
-0.02123991158271078
-0.0001190102095967774
-0.006872363795505383
-0.007404073118844287
-0.02535762006886664
-0.0023276368117644305
-0.00010940060113339938
-0.023005994280204754
-0.000118183855479079
-0.025166918613392115
-0.0021829668811609894
-0.00013993231351711388
-0.00012597831906141477
-0.016092322643145616
-0.016469083040580552
-0.0011793125984334162
-0.0380690001119655
-0.0013146902852380162
-0.004853084889565378
-0.0019935112331148828
-0.04668259958675872
-0.0044594950040807435
-0.021280236876660547
-0.002403331118025284
-0.034195332105011814
-0.0026748798704899187
-0.004103010926249489
-0.017878834305976584
-0.0034946230996495044
-0.013613319292760646
-0.04193309248338491
-0.04429051437829102
-0.00704753010815108
-0.017115500939873112
-0.005347505793727672
-0.03295941930124071
-0.016109287898312234
-0.00019575638583360357
-0.00019320559047078777
-0.012002563500914123
-0.00204716383656052
-0.04152694439387795
-0.0026847681469049658
-0.029449190551156027
-0.0027652938297777338
-0.02695157168148883
-0.0027481530159768966
-0.00937854634121243
-0.024049360777481776
-0.01789262756385134
-0.009403800000024188
-0.010245869086316875
-0.03304060540681336
-0.0002932260895448985
-8.268019928723357e-05
-0.017893353976263834
-0.00015690610569429487
-0.018162960166333467
-0.04493293524072873
-0.008726723254934
-0.014257550210068439
-0.0100830975277198
-0.005270983124535518
-7.139720729008809e-06
-0.007604682593294828
-0.018066869303188838
-0.016430515434396897
-7.529196021362949e-06
-9.635522127588288e-06
-9.507217867782752e-06
-0.021531263714606747
-0.002872712745890181
-0.002991716062420619
-0.01507382747121488
-0.011716409458820295
-0.0024600313836786623
-0.0022429129422044773
-0.0314144728344723
-0.013908856588481181
-0.005516042373562334
-0.021351224572324443
-0.004913761870004305
-0.0109828060766718
-0.03620845933354349
-0.01346685295822617
-0.0015747982507859598
-0.04046498030517172
-0.0019007009304019935
-0.02825449312112396
-0.0043630198009773635
-0.034714451300172665
-0.0058229452399051
-0.030769044433489653
-0.013841999471234519
-0.003020298215887962
-0.039178526836289855
-0.00409385577670613
-0.03734237229296586
-0.013243571808675693
-0.0003316290066111475
-0.0003223700706928153
-0.04397116004602218
-0.013397428518771333
-0.0018359984703519964
-0.0015482361421442926
-0.019107640302167935
-0.009008697431712412
-0.021610360035039838
-0.03610108916664296
-0.007391141643691861
-0.005075964941732727
-0.009363335468625122
-0.023002555682630828
-0.011166285759525281
-0.006202096145829759
-0.004101316583094829
-0.013237155920578074
-0.003558205335112697
-0.021250494257300554
-0.0032098864808976293
-0.006313418654329198
-0.0020984724524765125
-0.0038868103588949173
-0.030678271732863464
-0.03838569658559473
-0.019914315313523608
-0.002362260246486873
-0.002112497792732172
-0.009029021598520292
-0.0003594159189756773
-0.034775625763649426
-0.0003870837472563494
-0.037762251969740535
-0.0069542503749869845
-0.0004026553890774088
-0.00037094760295749226
-0.013447031710103873
-0.007705429374649151
-0.019956971603757652
-0.0058081602366089335
-0.0028169666390453684
-0.007046632232439284
-0.023891978566514763
-0.0006884040033792284
-0.000240143153973305
-0.00015383424589536648
-0.025974280118806113
-0.010322078856345862
-0.03068578812625315
-0.00019285177549187863
-0.0002021633117098562
-0.025036487576556382
-0.0032335956115046843
-0.029642033301254336
-0.0034129278680853064
-0.01663324974397195
-0.008907332060858657
-0.0021624455081512223
-0.04447645935762558
-0.0032754444836015045
-0.0466417851812553
-0.00254950567608792
-0.007989665660669663
-0.001738987791586913
-0.033376534158580065
-0.014798504071169815
-0.042350666468221776
-0.03969024553090477
-0.0006865244261171902
-0.017262259003226706
-0.0006566223778909371
-0.007033070799859828
-0.002805254554737337
-0.041452989859831986
-0.006541581154875378
-5.5336385410604134e-05
-0.023238525649078162
-5.6156446982469655e-05
-0.021322854830673792
-0.0035220013501829797
-4.1393782819637124e-05
-3.978947594390681e-05
-0.02787835419817985
-0.0058436456854263265
-0.0034830068451538157
-0.010536219255524068
-0.029616704248640355
-0.0009964337124528844
-0.02918106605696608
-0.0010088481000596525
-0.008367148598030878
-0.0006811514483408039
-0.0012192448551752095
-0.016300843751961062
-0.014364801065155289
-0.0043130926426942105
-0.02558872391824615
-0.004276617486210171
-0.00045462068764783666
-0.00010837015180098061
-0.021006349717375434
-0.00017625785875419571
-0.02376595163155903
-0.04624941400425612
-0.04451188320318523
-0.0060215653440248585
-0.0015088231202942059
-0.045670224226780486
-0.002384205540180446
-0.04231794710047808
-0.0009152276982798598
-0.004735156504525697
-0.0007032076899552493
-0.02098692932321892
-0.00025877777038894303
-0.029554674683249772
-0.00026395702300457345
-0.016740021992103397
-0.020298480333235027
-0.0005981607307217449
-0.03407507973721291
-0.0006238816478417445
-0.03686348429024892
-0.008442496943483622
-0.0025904812994273665
-0.0043952343620393
-0.03182713155912988
-0.0004922192690613343
-0.025491604952601592
-0.0004906458625213586
-0.0042819723159734785
-0.002813317052035947
-0.010705056947094541
-0.00888272819308507
-0.004969714785785075
-0.0005868392355478211
-0.03949089028521009
-0.0008401886254161663
-0.01612793622189819
-0.0005238647737354293
-7.732771854336843e-05
-5.920790584415101e-05
-0.0033538547568709646
-0.0062909681921474595
-0.014910834458328227
-0.005975772661380465
-0.010460120631925442
-0.021603371063360653
-0.009755236608597657
-0.012021977538596183
-0.0036415369952434713
-0.005613945370416284
-0.0005291148991701661
-8.705567320214664e-05
-0.019174172144342604
-0.00011581860787267323
-0.006898483427015814
-0.006858245707849553
-0.003824383518466819
-0.010144908442944292
-0.03518746324346377
-0.01954254797970676
-0.00034822475272991226
-0.0003458941076190898
-0.007945056665722592
-0.042973243661091384
-0.003282259439864367
-0.0013878992512687145
-0.0462889997716267
-0.0031612573026568495
-0.019955384478151372
-0.016345074983257504
-0.0092972069340052
-0.04010289732078651
-0.00550750625575779
-0.025879767298236295
-0.005698526343736584
-0.003740596693846122
-0.03586510064136004