# vtk DataFile Version 1.0
2D Simulation C++
ASCII
DATASET UNSTRUCTURED_GRID
FIELD FieldData 1
NODES 1 2 int
2209 4256

POINTS 2209 double
0.0 0.0 0.0
0.0 1.0 0.0
1.0 1.0 0.0
1.0 0.0 0.0
0.0 0.02500000037252903 0.0
0.0 0.05000000074505806 0.0
0.0 0.07500000298023224 0.0
0.0 0.10000000149011612 0.0
0.0 0.125 0.0
0.0 0.15000000596046448 0.0
0.0 0.17499999701976776 0.0
0.0 0.20000000298023224 0.0
0.0 0.22499999403953552 0.0
0.0 0.25 0.0
0.0 0.2750000059604645 0.0
0.0 0.30000001192092896 0.0
0.0 0.32499998807907104 0.0
0.0 0.3499999940395355 0.0
0.0 0.375 0.0
0.0 0.4000000059604645 0.0
0.0 0.42500001192092896 0.0
0.0 0.44999998807907104 0.0
0.0 0.4749999940395355 0.0
0.0 0.5 0.0
0.0 0.5249999761581421 0.0
0.0 0.550000011920929 0.0
0.0 0.574999988079071 0.0
0.0 0.6000000238418579 0.0
0.0 0.625 0.0
0.0 0.6499999761581421 0.0
0.0 0.675000011920929 0.0
0.0 0.699999988079071 0.0
0.0 0.7250000238418579 0.0
0.0 0.75 0.0
0.0 0.7749999761581421 0.0
0.0 0.800000011920929 0.0
0.0 0.824999988079071 0.0
0.0 0.8500000238418579 0.0
0.0 0.875 0.0
0.0 0.8999999761581421 0.0
0.0 0.925000011920929 0.0
0.0 0.949999988079071 0.0
0.0 0.9750000238418579 0.0
0.02500000037252903 1.0 0.0
0.05000000074505806 1.0 0.0
0.07500000298023224 1.0 0.0
0.10000000149011612 1.0 0.0
0.125 1.0 0.0
0.15000000596046448 1.0 0.0
0.17499999701976776 1.0 0.0
0.20000000298023224 1.0 0.0
0.22499999403953552 1.0 0.0
0.25 1.0 0.0
0.2750000059604645 1.0 0.0
0.30000001192092896 1.0 0.0
0.32499998807907104 1.0 0.0
0.3499999940395355 1.0 0.0
0.375 1.0 0.0
0.4000000059604645 1.0 0.0
0.42500001192092896 1.0 0.0
0.44999998807907104 1.0 0.0
0.4749999940395355 1.0 0.0
0.5 1.0 0.0
0.5249999761581421 1.0 0.0
0.550000011920929 1.0 0.0
0.574999988079071 1.0 0.0
0.6000000238418579 1.0 0.0
0.625 1.0 0.0
0.6499999761581421 1.0 0.0
0.675000011920929 1.0 0.0
0.699999988079071 1.0 0.0
0.7250000238418579 1.0 0.0
0.75 1.0 0.0
0.7749999761581421 1.0 0.0
0.800000011920929 1.0 0.0
0.824999988079071 1.0 0.0
0.8500000238418579 1.0 0.0
0.875 1.0 0.0
0.8999999761581421 1.0 0.0
0.925000011920929 1.0 0.0
0.949999988079071 1.0 0.0
0.9750000238418579 1.0 0.0
1.0 0.9750000238418579 0.0
1.0 0.949999988079071 0.0
1.0 0.925000011920929 0.0
1.0 0.8999999761581421 0.0
1.0 0.875 0.0
1.0 0.8500000238418579 0.0
1.0 0.824999988079071 0.0
1.0 0.800000011920929 0.0
1.0 0.7749999761581421 0.0
1.0 0.75 0.0
1.0 0.7250000238418579 0.0
1.0 0.699999988079071 0.0
1.0 0.675000011920929 0.0
1.0 0.6499999761581421 0.0
1.0 0.625 0.0
1.0 0.6000000238418579 0.0
1.0 0.574999988079071 0.0
1.0 0.550000011920929 0.0
1.0 0.5249999761581421 0.0
1.0 0.5 0.0
1.0 0.4749999940395355 0.0
1.0 0.44999998807907104 0.0
1.0 0.42500001192092896 0.0
1.0 0.4000000059604645 0.0
1.0 0.375 0.0
1.0 0.3499999940395355 0.0
1.0 0.32499998807907104 0.0
1.0 0.30000001192092896 0.0
1.0 0.2750000059604645 0.0
1.0 0.25 0.0
1.0 0.22499999403953552 0.0
1.0 0.20000000298023224 0.0
1.0 0.17499999701976776 0.0
1.0 0.15000000596046448 0.0
1.0 0.125 0.0
1.0 0.10000000149011612 0.0
1.0 0.07500000298023224 0.0
1.0 0.05000000074505806 0.0
1.0 0.02500000037252903 0.0
0.9750000238418579 0.0 0.0
0.949999988079071 0.0 0.0
0.925000011920929 0.0 0.0
0.8999999761581421 0.0 0.0
0.875 0.0 0.0
0.8500000238418579 0.0 0.0
0.824999988079071 0.0 0.0
0.800000011920929 0.0 0.0
0.7749999761581421 0.0 0.0
0.75 0.0 0.0
0.7250000238418579 0.0 0.0
0.699999988079071 0.0 0.0
0.675000011920929 0.0 0.0
0.6499999761581421 0.0 0.0
0.625 0.0 0.0
0.6000000238418579 0.0 0.0
0.574999988079071 0.0 0.0
0.550000011920929 0.0 0.0
0.5249999761581421 0.0 0.0
0.5 0.0 0.0
0.4749999940395355 0.0 0.0
0.44999998807907104 0.0 0.0
0.42500001192092896 0.0 0.0
0.4000000059604645 0.0 0.0
0.375 0.0 0.0
0.3499999940395355 0.0 0.0
0.32499998807907104 0.0 0.0
0.30000001192092896 0.0 0.0
0.2750000059604645 0.0 0.0
0.25 0.0 0.0
0.22499999403953552 0.0 0.0
0.20000000298023224 0.0 0.0
0.17499999701976776 0.0 0.0
0.15000000596046448 0.0 0.0
0.125 0.0 0.0
0.10000000149011612 0.0 0.0
0.07500000298023224 0.0 0.0
0.05000000074505806 0.0 0.0
0.02500000037252903 0.0 0.0
0.503752132757332 0.500963636277837 0.0
0.7097420748288491 0.7008377947746753 0.0
0.7006301928266214 0.2933946798800442 0.0
0.2952109909909133 0.704767786520224 0.0
0.2928599229625545 0.2942878693530604 0.0
0.7743036573165547 0.5038527522969569 0.0
0.5008429421254338 0.2202549221435883 0.0
0.49034310417199295 0.7759461278824177 0.0
0.22123862969030278 0.4944746274826216 0.0
0.8270456461318894 0.8197651125283522 0.0
0.8180889332872803 0.1691375560761559 0.0
0.17842928059821 0.8278020437900421 0.0
0.1693791473393075 0.17825682037091248 0.0
0.6408867523546166 0.5644328756514012 0.0
0.5623778082526614 0.3656083027020344 0.0
0.44005889393980563 0.6329085001083589 0.0
0.36083203294329336 0.4261240106473895 0.0
0.8429859849292892 0.6421068094795616 0.0
0.6422977020151616 0.15404672524077256 0.0
0.348555343027126 0.8404185333606704 0.0
0.15348361553527154 0.3538415128168266 0.0
0.6466843501925429 0.8401014396607052 0.0
0.8402087021831407 0.3564431794469268 0.0
0.15640961815054302 0.6415533682240766 0.0
0.3566530303393841 0.15567835589608023 0.0
0.671711048247656 0.44764177226089624 0.0
0.5817996268826605 0.6747916177466802 0.0
0.44526584755766674 0.3183778152261352 0.0
0.3267177731555626 0.5544673523989203 0.0
0.8808013603265636 0.5299806502284682 0.0
0.529578519065665 0.11146750270572342 0.0
0.46525580455136645 0.8842121193037167 0.0
0.11155952818241055 0.4674027718816601 0.0
0.8961172006967819 0.7406737269155534 0.0
0.7399320429169215 0.1007818236039404 0.0
0.25696134525075887 0.8950454142927441 0.0
0.10142366030959044 0.2569389780709535 0.0
0.7434753799209967 0.8819450357591053 0.0
0.11697721953753308 0.7424273342624852 0.0
0.8798023233126723 0.25485390792091506 0.0
0.25436660303287106 0.11688944496957805 0.0
0.7397243561642308 0.6026066472063663 0.0
0.6074308341341311 0.2495291785764709 0.0
0.39315965891653076 0.7464175570514626 0.0
0.25265590253374487 0.3932858116009822 0.0
0.5220329320155171 0.590290103332605 0.0
0.8971535383754904 0.883721047473295 0.0
0.8824859595230296 0.09902472499801386 0.0
0.1138074012921669 0.89800271980257 0.0
0.09907554692266933 0.1138258829049116 0.0
0.7598251858606421 0.3910625320480031 0.0
0.23673424286477585 0.6083402701366718 0.0
0.3891629921594687 0.2341617916523027 0.0
0.8956202808806545 0.4357430939790068 0.0
0.43492445341648656 0.10085431471067337 0.0
0.5632321055785002 0.8928905657134409 0.0
0.10117193706082477 0.5622444963130733 0.0
0.7867781616216655 0.7410135170363332 0.0
0.7406874406896072 0.20976155141591127 0.0
0.25551901705417174 0.7877316776522915 0.0
0.20987781050043863 0.25568591772663596 0.0
0.7191897691245572 0.7992143198640193 0.0
0.7923055976885401 0.28201931715816203 0.0
0.20408447952093411 0.7159697805355447 0.0
0.2858598785809173 0.1997527747926715 0.0
0.5922413801283162 0.49355807658436446 0.0
0.4893732495440881 0.4103823347088355 0.0
0.4236889877876516 0.5447635741070648 0.0
0.6306006944143855 0.7566875707008547 0.0
0.6500891397228592 0.3534889253687877 0.0
0.49419577642039153 0.690850347613776 0.0
0.35214079248473495 0.6411054456309531 0.0
0.3478478115142199 0.3456310633137313 0.0
0.9141646685179668 0.8144724680226839 0.0
0.8133391487611872 0.08198800093613268 0.0
0.18329712077127427 0.9146632653747285 0.0
0.0819226946401757 0.1830432484429735 0.0
0.8263637057684472 0.9087299009295801 0.0
0.08935635478936314 0.8269116479270358 0.0
0.9076635563487503 0.17027333381089152 0.0
0.1701969782595692 0.08925510283183787 0.0
0.6963966968975027 0.5165338412197386 0.0
0.6470032236259218 0.6469878751318303 0.0
0.511109503034705 0.30180296301709486 0.0
0.29863991933086637 0.48219440805680824 0.0
0.915858731359847 0.6058524266903254 0.0
0.611462751275225 0.0839487151212683 0.0
0.393875995114687 0.9185262099631386 0.0
0.08138414507275664 0.38535918251461804 0.0
0.6622844352011988 0.9172667358277651 0.0
0.07947759690339477 0.6605440037780059 0.0
0.9173606393324869 0.33652155114785903 0.0
0.3364440608011549 0.07932234784858774 0.0
0.8196639974646173 0.43549417774142607 0.0
0.5652165867518048 0.81486978258287 0.0
0.4338799020380677 0.17524702953941973 0.0
0.1768034175992361 0.5629948829481721 0.0
0.4318751755794488 0.4561309111156329 0.0
0.8169859976507152 0.5685492610795155 0.0
0.566567345519271 0.17974385504882182 0.0
0.42855073390524256 0.816787292989183 0.0
0.1793653733603408 0.42975498114349286 0.0
0.7694805703360151 0.6662792790487317 0.0
0.6667063635591615 0.22410847084937155 0.0
0.32966915028882515 0.7740390085557006 0.0
0.22429809605004006 0.33005603707255693 0.0
0.9271064766570835 0.6826701143025813 0.0
0.6828567107100906 0.07068601521496644 0.0
0.3106698135239596 0.9247890711255753 0.0
0.07229568914853662 0.3100008388490903 0.0
0.5594932122350961 0.738542950662605 0.0
0.6001319571879667 0.4182289881151939 0.0
0.37375935331307025 0.49687449891927604 0.0
0.7322033735973381 0.45746276562186694 0.0
0.4539951563877243 0.2609232763785892 0.0
0.265323704787293 0.5407853541798124 0.0
0.5856363538812911 0.6125282019155385 0.0
0.4166294025130907 0.38467981600595963 0.0
0.5702126981273763 0.54022495149025 0.0
0.5463583912940657 0.44718660560501683 0.0
0.9320818123850907 0.4949973028627536 0.0
0.49575589890274435 0.06446620376926068 0.0
0.49977392228300116 0.9300066594299702 0.0
0.06473251425679177 0.5010006972871389 0.0
0.8436134973727363 0.4971971673175689 0.0
0.49559825046660666 0.15220942991622322 0.0
0.49723680923122043 0.8404209079435072 0.0
0.15275809431575618 0.5013030318454719 0.0
0.8428449357375014 0.6965540600741995 0.0
0.6961426322556707 0.15395068544170237 0.0
0.2993460826147832 0.8423434545489643 0.0
0.1544525534351544 0.29988786636893416 0.0
0.7696728399804427 0.8362889628745186 0.0
0.8331603642455306 0.22716643391297647 0.0
0.1633916605250564 0.7702177601443504 0.0
0.22647845567682917 0.16291324918182035 0.0
0.7599467245006342 0.3258913207455637 0.0
0.23612955855281767 0.6729047624946393 0.0
0.324113216291424 0.23540846051709255 0.0
0.6376227787860366 0.29996977140177405 0.0
[...]
POINT_DATA 2209
SCALARS Psi double
LOOKUP_TABLE default
0.0
0.0
0.0
0.0
0.0
0.0
0.0
0.0
0.0
0.0
0.0
0.0
0.0
0.0
0.0
0.0
0.0
0.0
0.0
0.0
0.0
0.0
0.0
0.0
0.0
0.0
0.0
0.0
0.0
0.0
0.0
0.0
0.0
0.0
0.0
0.0
0.0
0.0
0.0
0.0
0.0
0.0
0.0
0.0
0.0
0.0
0.0
0.0
0.0
0.0
0.0
0.0
0.0
0.0
0.0
0.0
0.0
0.0
0.0
0.0
0.0
0.0
0.0
0.0
0.0
0.0
0.0
0.0
0.0
0.0
0.0
0.0
0.0
0.0
0.0
0.0
0.0
0.0
0.0
0.0
0.0
0.0
0.0
0.0
0.0
0.0
0.0
0.0
0.0
0.0
0.0
0.0
0.0
0.0
0.0
0.0
0.0
0.0
0.0
0.0
0.0
0.0
0.0
0.0
0.0
0.0
0.0
0.0
0.0
0.0
0.0
0.0
0.0
0.0
0.0
0.0
0.0
0.0
0.0
0.0
0.0
0.0
0.0
0.0
0.0
0.0
0.0
0.0
0.0
0.0
0.0
0.0
0.0
0.0
0.0
0.0
0.0
0.0
0.0
0.0
0.0
0.0
0.0
0.0
0.0
0.0
0.0
0.0
0.0
0.0
0.0
0.0
0.0
0.0
0.0
0.0
0.0
0.0
0.0
0.0
-0.05208650324895072
-0.08620867416794761
-0.012136249336877307
-0.052887931920605945
-0.011577871437455626
-0.031553792150934935
-0.01034488368406373
-0.0884991932423158
-0.020617943298929707
-0.06810878344967387
-0.0014809322919499995
-0.03702888604890063
-0.001920723225843806
-0.06522381996319536
-0.027543765165210538
-0.06997339570014474
-0.029497647271638262
-0.03802950003628897
-0.004174611471325454
-0.06758378161378825
-0.006214666416028261
-0.0898611386300583
-0.006596406850874112
-0.01921484062487549
-0.004410509455861697
-0.03608234709408665
-0.08909080705350475
-0.02021051238035849
-0.04210081572561148
-0.012659157529058987
-0.0028601547836383415
-0.07144433388954488
-0.0061600292585279985
-0.031167886720717117
-0.0010903375988187095
-0.05092881321681431
-0.001608542061743903
-0.0739476612492592
-0.016397671301296116
-0.0015549300256443208
-0.0016460172592495305
-0.06001850101223837
-0.011821229308326488
-0.07422933701747321
-0.016350829562092502
-0.07114866563139664
-0.0420496441469824
-0.0001350822835779306
-0.027459659860470498
-0.0002666887737074546
-0.0173569254718403
-0.03236910198532316
-0.010265989843300544
-0.005118700911092005
-0.0022951476570748177
-0.07302712665534426
-0.007344905291505327
-0.07493190368382367
-0.004748382239271054
-0.050969938649578314
-0.0055269103658889
-0.09103956509853384
-0.00607321753093199
-0.03422598021370996
-0.0054075187578166845
-0.05130750867599329
-0.03469908447614301
-0.053738763617050676
-0.09701620093913027
-0.022131996981229505
-0.08443064471369065
-0.057156790046554704
-0.019157868758389273
-0.030206066921353563
-0.00033040213900604294
-0.04003985518543075
-0.0005313619715672402
-0.05595342095124056
-0.01498309536776503
-0.00029660181881744946
-0.00047692119110957857
-0.04767080237484425
-0.08335884110119704
-0.018983572053036732
-0.02963190315174639
-0.010619007247778485
-0.001420646415316412
-0.05576116137784502
-0.0023657011441648884
-0.06228101102892091
-0.006535854099965795
-0.0014419464374493844
-0.0011424777641163677
-0.01444554672354568
-0.09215358837110821
-0.006466310297875407
-0.01853731588250203
-0.039566354643335085
-0.033047501642938015
-0.006745588886761303
-0.07949716803920692
-0.011581363356316102
-0.06681689726712947
-0.00797218384346394
-0.0645652663181784
-0.009918813010019727
-0.013069415802394364
-0.0007762143992205157
-0.04860898957915709
-0.0012415648946230212
-0.09431163048498131
-0.035448709124227054
-0.04050464759003823
-0.03046590911373117
-0.013946565036095263
-0.031040612711280207
-0.07801854873124502
-0.027780749408851474
-0.062156337814695144
-0.042257903608711636
-0.003344446977787133
-0.0010506699881659056
-0.05369030019224291
-0.0027098524115047166
-0.01683668086139651
-0.005181532149306006
-0.08372239348987727
-0.01191908412958179
-0.04771448523549192
-0.003317252474019895
-0.06044428865986923
-0.0045723829662002785
-0.0807664042693181
-0.002384057171749911
-0.028984039589927638
-0.00261166209645021
-0.0110032138611584
-0.03775118853635907
-0.008617954171818308
-0.016004116662127203
-0.06530884692724663
-0.01718420193215469
-0.05799860329957067
-0.001739095916566148
-0.004456613853649965
-0.0010489794143225648
-0.056190566150001404
-0.0785508425452075
-0.017262150953921966
-1.2598303469860727e-05
-0.02597517998955518
6.547587083282129e-06
-0.06245757820347355
-0.004256406671010638
-0.0008070122917995837
-0.048986093728832225
-0.0017011519948981057
-0.016226497078973827
-0.00033000745778017027
-0.0401341825051843
-0.000504618543530206
-0.048821826331056285
-0.006179650492611752
-0.0003159112365022141
-0.0004184125981466212
-0.05826737140439735
-0.001993699556289063
-0.04838371465466211
-0.0026223604956082777
-0.08675895800085441
-0.004185914862583852
-0.021045101885144288
-0.0035704921262422634
-0.07684588764287018
-0.05257940630181972
-0.026824863841678665
-0.04537318497321993
-0.0186542282849086
-0.0929133030254999
-0.023991802583637742
-0.06755062296458827
-0.012659548416222128
-0.020599463111559756
-0.020818252834944286
-5.284505784269712e-05
-0.030688078117604163
-0.00011931142106983191
-0.042257694848224045
-0.010481910209768557
-6.398960126876943e-05
-0.00014906079301913117
-0.0823742589849647
-0.02509584916976126
-0.016513111027127676
-0.0436854689991074
-0.08235198362161061
-0.023217884285553107
-0.003776740631363576
-0.07227595284568272
-0.006567688007811126
-0.08554228029242643
-0.007291825442222242
-0.04773113068628973
-0.007425461036918903
-0.0946599626007848
-0.0504327186512048
-0.008035716704883381
-0.07289869549595956
-0.011469820854873063
-0.05062616313213729
-0.004981867244005857
-0.0005156290585117679
-0.000554398181707482
-0.050713249848588174
-0.0004777339675764165
-0.03472194168521575
-0.0007358803787257782
-0.01369682086147315
-0.007527447836082673
-0.024510261143347575
-0.07605450225413368
-0.07657031927831211
-0.002965281522596189
-0.041535362307914644
-0.003469769772493907
-0.017078958174936446
-0.04624774902460186
-0.013245704350749225
-0.004798025122453992
-0.0800866839954177
-0.0028362048444202847
-0.011403980717038355
-0.09551089788049587
-0.06783515897507685
-0.09418814852571931
-0.04856420945145953
-0.0643467883119402
-0.007988161149198269
-0.02904749255307059
-0.005968518157511137
-0.03321512481537901
-0.020878031375139418
-0.022700623138633226
-0.0013249250616277147
-0.0006370721401952439
-0.046039616030584464
-0.00217961827203461
-0.07071115519434922
-0.024712379009733294
-0.0010970179412812021
-0.0013938394032163364
-0.008436684123295917
-0.002824204481962636
-0.07494160990182222
-0.007308081079441206
-0.021660982488374614
-0.010239543393548035
-0.026931707540085024
-0.041469681882583695
-0.054517657236550165
-0.029989573458167145
-0.0023045939459448114
-0.0611471578525728
-0.0034332962707984568
-0.006298333344444486
-0.00021122483215025865
-0.031302665054927674
-0.0002833956143750656
-0.0033899520973272126
-0.0003041611634327985
-0.036816291694246654
-0.0006267612119148465
-0.027069402901481538
-0.08988553657129779
-0.031287635822214506
-0.0427395474418636
-0.04823746226561393
-0.09495882812099483
-0.04909598703387796
-0.0010002578636229041
-0.04411710331411121
-0.0014131473194083917
-0.0791959481838681
-0.008589323250516371
-0.0563200630499797
-0.009372828914337017
-0.05455322429352057
-0.00032948646075264777
-0.024977372480287263
-0.0005404743701501679
-0.0588600061951751
-0.02141019617077612
-0.08934721630502565
-0.062404349640775326
-0.03239859819903
-0.03695501735677803
-0.09257138525667395
-0.028154858672842467
-0.033642616006403454
-0.059895710853279625
-0.03730148663134297
-0.03891267408381176
-0.01429653971559974
-0.017707435055227472
-0.02699137399450806
-0.07623384916564603
-0.0852644715077658
-0.010476330139317902
-8.565786442237936e-05
-0.031018898657113513
-0.00015212189815639273
-0.04013173817395926
-0.005031088833834909
-0.00010605841430858953
-0.000182975151849406
-0.0361813261857649
-0.04712250422821858
-0.049079859159408795
-0.010298271037724143
-0.015771045117727357
-0.021735838596523924
-0.005235355061159553
-0.08413304625220917
-0.010496007981142027
-0.08020851545541381
-0.01385060763943005
-0.003420147433882382
-0.0025972867923699885
-0.03761110699628928
-0.0017992516754420217
-0.00041391701888849675
-0.0003232375152559857
-0.0029577402872387267
-0.0004900202728749974
-0.03547475272172612
-0.0008973613230292544
-0.011233368348811603
-0.00445702465904973
-0.0851051953416462
-0.01237346673114001
-0.024952083811388512
-0.008974529686085442
-0.0897269725604046
-0.004772385567111545
-0.016613057845049628
-0.011546773702429194
-0.06888329518388589
-0.014332065883204013
-0.06590871180446313
-0.015380188976501185
-0.0007767419956443729
-0.00098936685355143
-0.0782158028198639
-0.03232652913931124
-0.0006486051036545578
-0.04524253624658253
-0.0009678861736658721
-0.024822876209148644
-0.0027643206120959818
-0.06587143332028711
-0.004344112828135222
-0.015145920090664728
-1.6508940433421808e-06
-0.02358185793461446
-2.4253339544580254e-05
-0.006600607439202141
-0.027885316960935796
-1.8890635748335744e-05
2.837792821269679e-06
-0.07836025789633047
-0.054888785314760005
-0.005399578346622542
-0.06463469608483029
-0.007228595579367039
-0.0711520091666298
-0.011172508756516111
-0.0017617408557496653
-0.001593158786749927
-0.08563768519686506
-0.016806807403408678
-0.05528076893448243
-0.015280110096539228
-0.00951224682097068
-0.01697652021519633
-0.036128975516838545
-0.02341942428072074
-0.020859509247262733
-0.007631764621867813
-0.018158623660841228
-0.009857565981963853
-0.001797701364118745
-0.06251538236986849
-0.0035166955360067024
-0.07850426577469972
-0.04302416459895073
-0.057794878515301885
-0.06953500661117738
-0.06809625258267803
-0.015727866359457283
-0.019199459323804614
-0.035011871053729826
-0.0052051690961601
-0.07418881282060769
-0.008218497774367813
-0.012147928583134123
-0.008007342078713129
-0.0307487613723189
-0.09665654356210876
-0.04258972781662424
-0.0695066095645075
-0.005973327617562243
-0.058205569864774584
-0.007192819200145924
-0.0014233057628128035
-0.0003599944261526933
-0.03513141475104454
-0.0008728670909533757
-0.0710939735609116
-0.06890597773283644
-0.07349920268248016
-0.033857573179938295
-0.03053325463483803
-0.01645365887870535
-0.03828409904605121
-0.08398583969849338
-0.08361741523333077
-0.08489894127465505
-0.0032347762578170914
-0.026502376951963225
-0.0031661161203209993
-0.08582281529164851
-0.004238605271918968
-0.03904588179998654
-0.004439668546862094
-0.05025675260346336
-0.0022586485391096825
-0.05388013977105493
-0.003067285314819302
-0.023478387751768658
-0.0011021803911152423
-0.05261006727906473
-0.0017258424979365071
-0.028812520347361315
-0.011653138104348834
-0.025595729976421677
-0.09117720500342058
-0.012267270197443947
-0.06164473633264746
-0.013296368895286742
-0.04314062620616615
-0.02247567972757951
-0.0037407728940372672
-0.0001980764350269728
-0.0285495578171639
-0.0002783876117133854
-0.0322393713360755
-0.03270053937590281
-0.06375931702954636
-0.015018751527998826
-0.001320135116911645
-0.054810710978003746
-0.0020386847474776785
-0.00995141308568339
-0.045180910272022576
-0.009029524809538192
-0.034608681743636766
-0.00018899870972798245
-0.03421462235496263
-0.0003335045882966133
-0.03508970923189125
-0.0018049197398620025
-0.00025288641376135164
-0.0002496536299444104
-0.0008932334809421853
-0.0003168368540919993
-0.03299154146507284
-0.0009011542816245115
-0.005821880332762473
-0.0013129313113591726
-0.05731733207809819
-0.0029966367352564144
-0.01083088987282637
2.3713235214858832e-06
-0.014067635865107815
3.915856782825207e-06
-0.07720579845264022
-0.02418718219079811
-0.013190311672466128
-0.03498327948184969
-0.06149871255591019
-0.0006683910705741633
-0.028977167801033033
-0.0009680501750027092
-0.032417799657331305
-0.0021874639393862443
-0.00011880010103011787
-0.00016408733765075755
-0.007492338453429624
-0.015355017069118296
-0.025728615381799002
-0.0929919950980201
-0.045840223563565416
-0.06370341908707398
-0.006238480312960641
-0.001894799010466939
-0.0013000950824599903
-0.08960125725329128
-0.09660658675877658
-0.07708535455594434
-0.023351018945931366
-0.0017488547206330808
-0.0019653821697315894
-0.05936124520856407
-0.0007239943249078012
-0.008435862249973957
-0.0008100762118697271
-0.0833795277522189
-0.08114210770061489
-0.019093186268044363
-0.0005323177495609933
-0.04445350468786747
-0.0008006881976091407
-0.048278817494570136
-0.003024274394043499
-0.0012426171965233396
-0.05897993127456413
-0.0037958285665029095
-0.0346789912124864
-0.0012033595259304574
-0.0005757710140201971
-0.00031603746371317704
-0.07780476210104052
-0.05788977175872902
-0.07631790165117265
-0.039320244821782355
-0.07915973583597294
-0.006917331584577145
-0.08134603879787819
-0.003301338866241336
-0.010898758249498895
-0.06686379435000461
-0.039570964779543936
-0.016979740407371692
-0.02561890449271155
-0.09555322052925022
-0.014262842160012947
-0.01940416761979345
-0.010249195282551112
-3.446223788244673e-05
-2.2206524544042175e-05
-6.132347977694947e-05
-0.03034362116186326
-0.0036366583400801724
-0.02699405175330057
-7.436790154920289e-05
-0.021007472516388473
-0.048952938769295136
-0.015981261119644104
-0.05559995813059975
-0.05643195599110879
-0.015389878557945422
-0.03746363879496748
-0.010579876110486015
-0.07272056571395573
-0.048630677124058136
-0.0746832517009132
-0.0019429135687154052
-0.034960319651612407
-0.0023538816553284225
-0.09066246303007913
-0.06866737882044571
-0.0029252856795158677
-0.0666931351410636
-0.0019250781690760275
-0.04781398439622861
-0.04258760253797233
-0.003611155913010057
-0.0024650876228552885
-0.00883378839671169
-0.023562167558886578
-0.0057292759829883615
-0.0862147449796877
-0.002991427787256738
-0.06581614083955359
-0.00159129743406301
-0.005869188171105745
-0.02874579408816135
-1.0716168956211066e-05
-0.02343276676553314
-5.594171469646469e-05
-0.003784447816023085
-8.297478431978266e-05
-0.02414861406805262
-0.00012798757853137827
-0.019330268059690292
-0.019175032500091407
-0.06314240153553692
-0.005769285681288591
-6.487727427946628e-05
-0.025582623699275255
-0.00011026065756598696
-0.03094009242653719
-0.002455468099783686
-6.838620912930032e-05
-0.00011507545145159181
-0.05914760738528319
-0.04458230047927959
-0.0013435236519920848
-0.04941852754789799
-0.0018817755777276008
-0.013018167173580739
-0.0037071052098378537
-0.07827190699727654
-0.008573326788792694
-0.06525317123020073
-0.0039080963739224345
-0.054255267288794415
-0.004872763134638907
-0.008622414056894855
-0.03423243871454451
-0.007257312091504383
-0.04955244747787502
-0.08939842210071898
-0.08893447513811996
-0.020085098420466473
-0.039273001788936376
-0.012977240644256129
-0.04163969343446811
-0.0166055521823357
-5.1688992114676136e-05
-0.00013630175988226258
-0.04018035527012786
-0.00341071949828082
-0.06378369395536908
-0.004908450212093899
-0.08171614375814022
-0.004653669041875024
-0.044961530216675774
-0.005102546883251351
-0.02827628918763549
-0.07689744231503907
-0.056256966815797164
-0.029216141438127844
-0.027937046709598283
-0.09098253330118143
-0.0005318339025500287
-0.00010275408227457502
-0.02098622411052873
-0.00022312803082334004
-0.05043676841324196
-0.08744855848254325
-0.024915674215996265
-0.04578449490893144
-0.028816338817477898
-0.004934745141677842
2.975061493631742e-07
-0.009089338339555674
-0.02029514417989847
-0.017022510824414794
4.574910364130757e-06
5.6335597859534515e-06
8.96645972825479e-07
-0.06256987684598264
-0.0049388117448957046
-0.005408586253802408
-0.02607622061872006
-0.020656503271159553
-0.004531545293512723
-0.004110004531560809
-0.09494834345439852
-0.04956286255575265
-0.01384807395942968
-0.0459470713529041
-0.011402180922597246
-0.03711345578557464
-0.09241723886108147
-0.04190680225952959
-0.0022138876561547116
-0.05695111034558664
-0.003127113540644782
-0.08757892304448574
-0.01008613211435936
-0.07211111442067877
-0.01348268788521743
-0.09189283790845232
-0.048669171697258776
-0.005990621444021163
-0.06923478862580991
-0.008508060973226187
-0.04953381382101685
-0.01472579433394718
-0.00015146635580287062
-0.000284992341564535
-0.08097295451101247
-0.020715042532491536
-0.0024641358723253783
-0.00244589482058158
-0.07017801440118931
-0.028615531916170188
-0.058467783738842705
-0.09361026719370524
-0.021294450366592825
-0.012579622904944241
-0.022651899769353376
-0.07011514979703053
-0.038865341333052236
-0.01667151174348855
-0.009234799288231677
-0.028519489946671805
-0.006865820922674549
-0.038855976728837005
-0.006382301562885741
-0.01912963488757683
-0.003913893280970207
-0.007569999530468105
-0.07077157213046856
-0.0855130310020117
-0.032071574347371415
-0.0035573297066329845
-0.0036057223033530944
-0.020884787195456847
-0.0002451662478333617
-0.03874434430342914
-0.0003989135220258982
-0.05043274487245753
-0.008378137793457254
-0.00025913111182477845
-0.00038897398196585995
-0.04847585894151521
-0.021943617147714003
-0.06622461134830265
-0.015927638283221066
-0.005736611920432265
-0.01442312914591504
-0.029398563801023157
-0.0009351915718668044
-0.00026307985786974176
-0.00019007439197019383
-0.08767425003772726
-0.019047695588338853
-0.03273019648538223
-8.424252774906847e-05
-0.0001635047343130782
-0.07789293221938808
-0.006079564004202974
-0.052434511556459625
-0.00681257331452748
-0.056433822760710274
-0.029651817099789035
-0.003936546682956805
-0.07106508233076717
-0.006283669552261463
-0.08246175106779075
-0.0044855481688389764
-0.013701471092532122
-0.002995750055761737
-0.0956843986874829
-0.04176565262165364
-0.0937579606872432
-0.06103951518090399
-0.0004972079702083099
-0.021086900902839024
-0.0007371699116520344
-0.01872526009114064
-0.007630128702254323
-0.05396706570073256
-0.010081362668862453
-8.060659554082401e-06
-0.024503334622093358
-3.0582080093615896e-05
-0.024845777281982666
-0.003409576966017971
1.6661686746931503e-07
-1.926629756458416e-05
-0.08518102711411611
-0.015426929620849095
-0.007478011064187751
-0.022045953383534846
-0.05928014723834539
-0.0009067161744122791
-0.03661074384471661
-0.001270877613588008
-0.02565456993978493
-0.0010068841057615384
-0.001952658099374439
-0.059357329344046285
-0.05262152608913284
-0.009449468601192718
-0.05050866418203587
-0.009340069016256926
-0.0010492130468511775
-0.00012571426695546817
-0.02421045410674578
-0.00023991224541159366
-0.08206983609963997
-0.07391102539138596
-0.07715391569780977
-0.01859226445450304
-0.00250666354336949
-0.066039059329041
-0.004231729722223117
-0.06014643817985943
-0.0010660493522616215
-0.006747472521384875
-0.0009658160081985275
-0.032475762933378
-0.00010375964537698346
-0.031229759017362843
-0.0002103254818533887
-0.04322145417253716
-0.04057123066491509
-0.0004318616174870646
-0.03901215156058464
-0.0006776371098423899
-0.09607737128355544
-0.027625889615602334
-0.005092702803485529
-0.008937523910609995
-0.04985440817029239
-0.00028276728196651173
-0.0285351974025491
-0.00047863601640105966
-0.009568755850323797
-0.005576007458065235
-0.02068503429889519
-0.029095913651177963
-0.014768660420323121
-0.0006554827973473332
-0.04828186620972251
-0.0011766930720745238
-0.01934941286906387
-0.0005998224118964475
-4.56126811892127e-05
-6.006937006952086e-05
-0.0072264427429801145
-0.013618698174824622
-0.05050238538978086
-0.015652219620193482
-0.026390681776819306
-0.07771933480858985
-0.030225099039409023
-0.04238338777753409
-0.007994662896191952
-0.012442597196957571
-0.001367798909783174
-8.869744143766987e-05
-0.02194211731538677
-0.0001470604641924006
-0.018098997100610255
-0.01959079177457329
-0.00848047287842498
-0.022075590589456694
-0.04856283875370709
-0.021317671747705307
-0.0001534081837815953
-0.0002970452012779312
-0.023721304233205898
-0.09341488426467873
-0.008098358780325592
-0.0023707805780322526
-0.06961305255280476
-0.005686129046502012
-0.06806625857281373
-0.05850835084758075
-0.025687034478183775
-0.07678320080697795
-0.013912175271510549
-0.05735445781430378
-0.01368179577857174
-0.008072242451777362
-0.06894116583109858
-0.01071676990030071
-0.05426100134659722
-0.02913345431357353
-0.06279697373015454
-0.0005547910559866917
-0.00017527261862768524
-0.024997724653874138
-0.00046267900745100706
-0.012116331803041181
-0.004145882598605162
-0.08295870736605455
-0.010513233519095137
-0.06894658437392702
-0.05053759572383484