# vtk DataFile Version 1.0
2D Simulation C++
ASCII
DATASET UNSTRUCTURED_GRID
FIELD FieldData 1
NODES 1 2 int
2209 4256

POINTS 2209 double
0.0 0.0 0.0
0.0 1.0 0.0
1.0 1.0 0.0
1.0 0.0 0.0
0.0 0.02500000037252903 0.0
0.0 0.05000000074505806 0.0
0.0 0.07500000298023224 0.0
0.0 0.10000000149011612 0.0
0.0 0.125 0.0
0.0 0.15000000596046448 0.0
0.0 0.17499999701976776 0.0
0.0 0.20000000298023224 0.0
0.0 0.22499999403953552 0.0
0.0 0.25 0.0
0.0 0.2750000059604645 0.0
0.0 0.30000001192092896 0.0
0.0 0.32499998807907104 0.0
0.0 0.3499999940395355 0.0
0.0 0.375 0.0
0.0 0.4000000059604645 0.0
0.0 0.42500001192092896 0.0
0.0 0.44999998807907104 0.0
0.0 0.4749999940395355 0.0
0.0 0.5 0.0
0.0 0.5249999761581421 0.0
0.0 0.550000011920929 0.0
0.0 0.574999988079071 0.0
0.0 0.6000000238418579 0.0
0.0 0.625 0.0
0.0 0.6499999761581421 0.0
0.0 0.675000011920929 0.0
0.0 0.699999988079071 0.0
0.0 0.7250000238418579 0.0
0.0 0.75 0.0
0.0 0.7749999761581421 0.0
0.0 0.800000011920929 0.0
0.0 0.824999988079071 0.0
0.0 0.8500000238418579 0.0
0.0 0.875 0.0
0.0 0.8999999761581421 0.0
0.0 0.925000011920929 0.0
0.0 0.949999988079071 0.0
0.0 0.9750000238418579 0.0
0.02500000037252903 1.0 0.0
0.05000000074505806 1.0 0.0
0.07500000298023224 1.0 0.0
0.10000000149011612 1.0 0.0
0.125 1.0 0.0
0.15000000596046448 1.0 0.0
0.17499999701976776 1.0 0.0
0.20000000298023224 1.0 0.0
0.22499999403953552 1.0 0.0
0.25 1.0 0.0
0.2750000059604645 1.0 0.0
0.30000001192092896 1.0 0.0
0.32499998807907104 1.0 0.0
0.3499999940395355 1.0 0.0
0.375 1.0 0.0
0.4000000059604645 1.0 0.0
0.42500001192092896 1.0 0.0
0.44999998807907104 1.0 0.0
0.4749999940395355 1.0 0.0
0.5 1.0 0.0
0.5249999761581421 1.0 0.0
0.550000011920929 1.0 0.0
0.574999988079071 1.0 0.0
0.6000000238418579 1.0 0.0
0.625 1.0 0.0
0.6499999761581421 1.0 0.0
0.675000011920929 1.0 0.0
0.699999988079071 1.0 0.0
0.7250000238418579 1.0 0.0
0.75 1.0 0.0
0.7749999761581421 1.0 0.0
0.800000011920929 1.0 0.0
0.824999988079071 1.0 0.0
0.8500000238418579 1.0 0.0
0.875 1.0 0.0
0.8999999761581421 1.0 0.0
0.925000011920929 1.0 0.0
0.949999988079071 1.0 0.0
0.9750000238418579 1.0 0.0
1.0 0.9750000238418579 0.0
1.0 0.949999988079071 0.0
1.0 0.925000011920929 0.0
1.0 0.8999999761581421 0.0
1.0 0.875 0.0
1.0 0.8500000238418579 0.0
1.0 0.824999988079071 0.0
1.0 0.800000011920929 0.0
1.0 0.7749999761581421 0.0
1.0 0.75 0.0
1.0 0.7250000238418579 0.0
1.0 0.699999988079071 0.0
1.0 0.675000011920929 0.0
1.0 0.6499999761581421 0.0
1.0 0.625 0.0
1.0 0.6000000238418579 0.0
1.0 0.574999988079071 0.0
1.0 0.550000011920929 0.0
1.0 0.5249999761581421 0.0
1.0 0.5 0.0
1.0 0.4749999940395355 0.0
1.0 0.44999998807907104 0.0
1.0 0.42500001192092896 0.0
1.0 0.4000000059604645 0.0
1.0 0.375 0.0
1.0 0.3499999940395355 0.0
1.0 0.32499998807907104 0.0
1.0 0.30000001192092896 0.0
1.0 0.2750000059604645 0.0
1.0 0.25 0.0
1.0 0.22499999403953552 0.0
1.0 0.20000000298023224 0.0
1.0 0.17499999701976776 0.0
1.0 0.15000000596046448 0.0
1.0 0.125 0.0
1.0 0.10000000149011612 0.0
1.0 0.07500000298023224 0.0
1.0 0.05000000074505806 0.0
1.0 0.02500000037252903 0.0
0.9750000238418579 0.0 0.0
0.949999988079071 0.0 0.0
0.925000011920929 0.0 0.0
0.8999999761581421 0.0 0.0
0.875 0.0 0.0
0.8500000238418579 0.0 0.0
0.824999988079071 0.0 0.0
0.800000011920929 0.0 0.0
0.7749999761581421 0.0 0.0
0.75 0.0 0.0
0.7250000238418579 0.0 0.0
0.699999988079071 0.0 0.0
0.675000011920929 0.0 0.0
0.6499999761581421 0.0 0.0
0.625 0.0 0.0
0.6000000238418579 0.0 0.0
0.574999988079071 0.0 0.0
0.550000011920929 0.0 0.0
0.5249999761581421 0.0 0.0
0.5 0.0 0.0
0.4749999940395355 0.0 0.0
0.44999998807907104 0.0 0.0
0.42500001192092896 0.0 0.0
0.4000000059604645 0.0 0.0
0.375 0.0 0.0
0.3499999940395355 0.0 0.0
0.32499998807907104 0.0 0.0
0.30000001192092896 0.0 0.0
0.2750000059604645 0.0 0.0
0.25 0.0 0.0
0.22499999403953552 0.0 0.0
0.20000000298023224 0.0 0.0
0.17499999701976776 0.0 0.0
0.15000000596046448 0.0 0.0
0.125 0.0 0.0
0.10000000149011612 0.0 0.0
0.07500000298023224 0.0 0.0
0.05000000074505806 0.0 0.0
0.02500000037252903 0.0 0.0
0.5038892175401327 0.5011717240076543 0.0
0.7094213723442673 0.7010040824664389 0.0
0.7006473969560945 0.2931779786208197 0.0
0.2953524700010437 0.7044280274033956 0.0
0.2932460894632857 0.2942557165933861 0.0
0.7739653216282124 0.5037844997124088 0.0
0.5006124871953436 0.22044205819180604 0.0
0.49037445482973896 0.7758299688865474 0.0
0.2212602735992082 0.4944698247211267 0.0
0.8269279474718239 0.8192698026583034 0.0
0.817946809858603 0.16940877538663465 0.0
0.17855490140667457 0.8276113247288563 0.0
0.16912810209387055 0.17821042135875745 0.0
0.6409027195223218 0.5644379026846815 0.0
0.5621205924018926 0.3650172796593252 0.0
0.4399720854835677 0.6327301978084505 0.0
0.36081864961635807 0.4258193321592709 0.0
0.8429692702306302 0.6421757549286699 0.0
0.6424785147947562 0.1540011567665318 0.0
0.3486903145487303 0.8402501389667495 0.0
0.15381032480791335 0.3534711365284659 0.0
0.6467579940204025 0.8400430775733161 0.0
0.8401535709649296 0.3565463980280402 0.0
0.15648205408563673 0.641249331756089 0.0
0.35652996194664377 0.15547671745451416 0.0
0.6718179327552558 0.4475270458456551 0.0
0.5817624611122791 0.6747513715324864 0.0
0.44527540117497544 0.3184980570999436 0.0
0.3266346597120268 0.5540814396054331 0.0
0.8802741797027895 0.5297233492347023 0.0
0.5294142416733184 0.1114321521510721 0.0
0.4650507951926857 0.8837287540963269 0.0
0.1115481830960799 0.4670812350912412 0.0
0.8958468113765037 0.7402959454906131 0.0
0.7400669520153988 0.10082741371091312 0.0
0.2573070971130938 0.8952380260988732 0.0
0.10172199854926363 0.25653931524138296 0.0
0.7433474146859353 0.8815087662059523 0.0
0.11697818577873291 0.7423719920491061 0.0
0.8796475342050617 0.2548932287964824 0.0
0.25416400420220736 0.11710487434320503 0.0
0.739634770168616 0.6026869815041547 0.0
0.6074225915219305 0.2496999477005839 0.0
0.3933763478842737 0.7462278597865221 0.0
0.25248947499221613 0.39291802579556817 0.0
0.5216317836264238 0.5902069891804288 0.0
0.8969609674094149 0.8837605099719421 0.0
0.8828049873398489 0.09896525730339437 0.0
0.11404037492315786 0.8976664226722526 0.0
0.09874601875739447 0.11395940785261686 0.0
0.7597108936484092 0.39085326649017066 0.0
0.2370528482821471 0.6082975615757064 0.0
0.38905876415263413 0.23409146997194621 0.0
0.8957486627440837 0.4357322964623592 0.0
0.4349902194229879 0.10056172017620542 0.0
0.5632814313548562 0.8928723523846175 0.0
0.1011091623327219 0.5618668741815028 0.0
0.7864983495771634 0.7409511464143714 0.0
0.7401320308556414 0.20984415104802406 0.0
0.25578033419578394 0.7875291587559046 0.0
0.20993592731247587 0.25555813985573855 0.0
0.7189377085016038 0.7989473215894907 0.0
0.7920092044896572 0.28200041540391835 0.0
0.203906986972028 0.715529172739869 0.0
0.2858376709224662 0.19965777045632913 0.0
0.5923754706151162 0.4935170644537978 0.0
0.4889839393861631 0.4099921581585063 0.0
0.4235677361493033 0.5448070269027218 0.0
0.6304909765835779 0.7565344325678238 0.0
0.6502428586053156 0.3529668342258859 0.0
0.49410520152444753 0.6906775358035857 0.0
0.35224229402345175 0.6404585391161686 0.0
0.3480188035369569 0.3456025360593854 0.0
0.9143255828646663 0.8137926696779372 0.0
0.8133907618199391 0.08218388836168887 0.0
0.1832980844543129 0.9148292297964721 0.0
0.08201781985447472 0.1831254829988757 0.0
0.8259730262551993 0.9085528785348513 0.0
0.08922295567731071 0.8264170429096326 0.0
0.9073822134121854 0.17023425019141006 0.0
0.17010790604270754 0.08914628088577226 0.0
0.696375688670264 0.5168831203616199 0.0
0.6471468814253561 0.6471013874426527 0.0
0.5109843485604987 0.30184218069720226 0.0
0.29830641141359887 0.48193030768529965 0.0
0.915770900592238 0.6059213743216654 0.0
0.6115551901441155 0.08386367697144258 0.0
0.39383428452160846 0.9183542073771609 0.0
0.08164488866611913 0.38511193387948894 0.0
0.6625018068884817 0.917111331209128 0.0
0.07942633772043457 0.660417390766821 0.0
0.9170940338524585 0.33665213541800976 0.0
0.336330883083625 0.0792990842520133 0.0
0.8195087236263717 0.43545662195970386 0.0
0.5650297929786613 0.8147113274278786 0.0
0.4338115375665302 0.17544029294953561 0.0
0.1768370253683668 0.5630354661687159 0.0
0.43208168279540227 0.4562336303171645 0.0
0.8167770259940123 0.5687835691223375 0.0
0.5666304878583214 0.1798572891975074 0.0
0.4287931875695259 0.8167042249460416 0.0
0.17958712668798543 0.42960041764689966 0.0
0.7693593325832195 0.6665583323436425 0.0
0.6662316985914133 0.22403374470849502 0.0
0.3297000813587002 0.7736665604530575 0.0
0.2245028093471601 0.32970327408659533 0.0
0.9270318218052436 0.6825082611895027 0.0
0.6831014585260173 0.07017111063706948 0.0
0.3110938608669369 0.9247204639974146 0.0
0.07231542121801235 0.30977929336073773 0.0
0.5595662723674554 0.738506009150145 0.0
0.600507354738071 0.4178867400468493 0.0
0.373502284941644 0.496674394908578 0.0
0.7320859661228585 0.45732706868025147 0.0
0.4539601604904071 0.26075634823661265 0.0
0.2652377599805333 0.5403984800373665 0.0
0.5854782259442952 0.6126538233976586 0.0
0.416349707573253 0.38477694902515913 0.0
0.5703391479310659 0.5404179946520442 0.0
0.5464117404405752 0.44682563786320373 0.0
0.9320302547604981 0.49497424297029086 0.0
0.49586548895358445 0.06443818221611541 0.0
0.4997409751829215 0.9297731626896925 0.0
0.06443655950785664 0.5006118999733801 0.0
0.8432498558288039 0.49714769608260695 0.0
0.4952888384103368 0.15210066581306744 0.0
0.4970417388910633 0.8401348374596191 0.0
0.15261933220706161 0.500962116214995 0.0
0.8424990222327114 0.6962932321487199 0.0
0.6961915383691641 0.1540349583099415 0.0
0.2994726901257208 0.842304786005979 0.0
0.15455710833139072 0.2998303803667607 0.0
0.7695203880348213 0.8359246443129681 0.0
0.8330413551655236 0.2273699012300103 0.0
0.16303346451892747 0.7698533992454044 0.0
0.22617845933388409 0.16274411629360017 0.0
0.7597959001849501 0.32597095157651984 0.0
0.23620250837272325 0.6722364880684056 0.0
0.3241506587705134 0.23559586508822283 0.0
0.6374310340013171 0.299782301936028 0.0
[...]
POINT_DATA 2209
SCALARS Psi double
LOOKUP_TABLE default
0.0
0.0
0.0
0.0
0.0
0.0
0.0
0.0
0.0
0.0
0.0
0.0
0.0
0.0
0.0
0.0
0.0
0.0
0.0
0.0
0.0
0.0
0.0
0.0
0.0
0.0
0.0
0.0
0.0
0.0
0.0
0.0
0.0
0.0
0.0
0.0
0.0
0.0
0.0
0.0
0.0
0.0
0.0
0.0
0.0
0.0
0.0
0.0
0.0
0.0
0.0
0.0
0.0
0.0
0.0
0.0
0.0
0.0
0.0
0.0
0.0
0.0
0.0
0.0
0.0
0.0
0.0
0.0
0.0
0.0
0.0
0.0
0.0
0.0
0.0
0.0
0.0
0.0
0.0
0.0
0.0
0.0
0.0
0.0
0.0
0.0
0.0
0.0
0.0
0.0
0.0
0.0
0.0
0.0
0.0
0.0
0.0
0.0
0.0
0.0
0.0
0.0
0.0
0.0
0.0
0.0
0.0
0.0
0.0
0.0
0.0
0.0
0.0
0.0
0.0
0.0
0.0
0.0
0.0
0.0
0.0
0.0
0.0
0.0
0.0
0.0
0.0
0.0
0.0
0.0
0.0
0.0
0.0
0.0
0.0
0.0
0.0
0.0
0.0
0.0
0.0
0.0
0.0
0.0
0.0
0.0
0.0
0.0
0.0
0.0
0.0
0.0
0.0
0.0
0.0
0.0
0.0
0.0
0.0
0.0
-0.05620826612904318
-0.08882773789595587
-0.01302199648346301
-0.0549961737995674
-0.012602151355816688
-0.033678480901211755
-0.011212183509593568
-0.0908718500489387
-0.022230428651651687
-0.06871450009379362
-0.0015003608281015783
-0.03739444920266643
-0.0020424413978291315
-0.069156636820006
-0.029879258166618242
-0.07384878446257608
-0.03206170839730495
-0.039492685945610874
-0.004410373040641518
-0.06862229318718865
-0.0067495814980883815
-0.09103227070541595
-0.007045072052146645
-0.020184744528219598
-0.004718960567519931
-0.03888325591164014
-0.09277405334321653
-0.022039396325140213
-0.04505759717293453
-0.013502702566859967
-0.0030351398641944214
-0.07240931616663054
-0.006664182808986378
-0.03196151826934356
-0.0011055225742892974
-0.05121591594111002
-0.0017320793186493722
-0.07450798820293747
-0.016720145640239638
-0.0015912220732730016
-0.001755536885563539
-0.06292391573080183
-0.01275646218076174
-0.07675814052965534
-0.017733317948037366
-0.07546515552306636
-0.04220437835943485
-0.00011234532713917858
-0.027527639688106294
-0.00027506296954268536
-0.01867051825737413
-0.03433997792944693
-0.011126175950574493
-0.005427564457928046
-0.002436341884422487
-0.07367029830255223
-0.007789087635939685
-0.07650476390216476
-0.005002255239549362
-0.0520729756082843
-0.00596537669671585
-0.09240085556771804
-0.006448567985444985
-0.035312534298553515
-0.005826965844540872
-0.055185942495276925
-0.03771398287609375
-0.05765283924457601
-0.09936178692032403
-0.023870584660732202
-0.08797052401991114
-0.060239291961657324
-0.020890482371452877
-0.030377289957043366
-0.00031588701856086405
-0.0400777834266668
-0.000560615113273647
-0.056194652236734845
-0.014919129525857666
-0.0002756330125340276
-0.0004957864080225361
-0.05094155542816328
-0.08694601370328396
-0.020688894442621494
-0.0319911969394299
-0.01114564553558284
-0.001483835776927378
-0.05620378370241669
-0.002576770749775277
-0.06271650751264993
-0.006799656862866441
-0.001519282435174858
-0.0012154647028677981
-0.015512378576046662
-0.0938936850727293
-0.006967225675396298
-0.01977925825907493
-0.042997470564393826
-0.03496715028583013
-0.007228966316784836
-0.08117162245384876
-0.012574809718338222
-0.069239108718262
-0.008534526850845619
-0.06627733452833903
-0.010774404937686513
-0.01350511988271622
-0.0007850885156496378
-0.04892626021953593
-0.0013386432275219746
-0.09720783918326047
-0.03836656946882626
-0.04374034090446214
-0.03272082083185984
-0.015130720919047533
-0.033270814541641894
-0.0822361353258017
-0.030294914175347076
-0.06647986602097593
-0.04572999368134596
-0.003558699814168696
-0.0011081857198055396
-0.05421359723211794
-0.002881928511077472
-0.017986042391233543
-0.0055391611496356475
-0.08514031712599497
-0.012799113183274797
-0.049098025247469264
-0.003465830140260671
-0.06121795778323164
-0.0049457428482169875
-0.08153037978056121
-0.0024579695439661217
-0.029349153192510642
-0.0027732876547052676
-0.01183382746104333
-0.03941177302222714
-0.009342650122469078
-0.01729829214619723
-0.06810202605329344
-0.018696605064129145
-0.058244637859983614
-0.001842736022895001
-0.004667394464651737
-0.0011158021968221622
-0.05982059033575884
-0.08179042353139863
-0.017232180751764723
-1.206402690370462e-05
-0.026008642471046745
1.1399007580379953e-05
-0.06673651728926992
-0.004473821675032387
-0.0008451882675329912
-0.04946077661495909
-0.0018235775077250287
-0.016359034115145693
-0.00032432330599504214
-0.04024467557222275
-0.0005441885098100001
-0.048967700821311105
-0.006217226073928533
-0.00030468285055407717
-0.00043405153639948545
-0.05919846984482159
-0.00204115283306725
-0.04881296838312038
-0.0028150420334359986
-0.08763779002266252
-0.004432211358149372
-0.02174480922398919
-0.0038259835406518794
-0.07982270664775248
-0.056297184800869364
-0.029202195490687546
-0.048068992034338925
-0.020238245807025768
-0.09585992964895487
-0.026079731382440206
-0.07110241776537339
-0.013702085856860075
-0.022267093127257033
-0.021019788505240753
-4.1278799427705816e-05
-0.03075265038092515
-0.0001222586338250541
-0.04246255476699942
-0.010435183263054579
-5.0485233180947155e-05
-0.00015303753489591848
-0.08642477002024919
-0.02707061673331947
-0.01800331030397313
-0.04647126271268117
-0.08505735094575047
-0.024522816186791235
-0.004001972280185942
-0.07337259112075374
-0.007144748693482024
-0.08748476508423751
-0.007786370522706789
-0.04908602922354551
-0.008043053944046067
-0.09665367389390835
-0.052718269602193744
-0.008589116251678847
-0.07464246362315195
-0.012471335613093682
-0.05099285022868715
-0.005125697669667355
-0.0005166845478934703
-0.0005790925282870573
-0.05103417573491008
-0.00045264526021206674
-0.03476625953276243
-0.000779474919490661
-0.014752045029399618
-0.008101619301279183
-0.02600639179141745
-0.08021900823326501
-0.07762356444800474
-0.0030655743986588635
-0.042173911813259364
-0.0037010056134598665
-0.018395436361300473
-0.048530862305708355
-0.014407834290686879
-0.005145103222949607
-0.0807396847544418
-0.0030313591546821702
-0.011967180431169245
-0.09728107231185501
-0.07123914126956828
-0.09572090462243639
-0.052496756162674935
-0.06851088312942223
-0.008522153227774774
-0.030315722417121944
-0.006420723506157502
-0.03602550311447595
-0.02261662182187331
-0.02472105446241346
-0.0013929674750869476
-0.0006721005777988443
-0.04642908617638648
-0.002318912174658146
-0.07117021257250171
-0.02489485018987682
-0.0010914991805426786
-0.0014724180527873802
-0.008975478096369907
-0.0030058939554311994
-0.07586035804503431
-0.007823147986151531
-0.02328519270151229
-0.01109376206588195
-0.028725659250812833
-0.04497891735662148
-0.058638991513518514
-0.031034382665248054
-0.0024001079509137933
-0.0617623309432184
-0.0037363955582532513
-0.006441830539465406
-0.0002102342453807039
-0.03132828877048059
-0.00030084572586261003
-0.0035404407183304517
-0.0003103039368409939
-0.036865272251734506
-0.0006827026746314995
-0.029495291298064514
-0.09335986042351054
-0.033820410235569226
-0.046086777342748034
-0.051762015121597435
-0.097985881447111
-0.04963046825230638
-0.00100074111076443
-0.04434694473950236
-0.0015143369403438243
-0.081480280098485
-0.00920400903086277
-0.05802606713449053
-0.010190576205167636
-0.054838091961105964
-0.00030329019980676944
-0.02494168392332004
-0.0005616912397400609
-0.0625403051897852
-0.023405083637004855
-0.09246138658265635
-0.06681472182412168
-0.035088406092972375
-0.039780636817196215
-0.09487135185356295
-0.030511160616316507
-0.036638772531086224
-0.06388700922032414
-0.03988472876527066
-0.04177023279889394
-0.01550672089988255
-0.019291253568034263
-0.029058853785510114
-0.08018093537110367
-0.08908839307101661
-0.01051837306390836
-7.905686152289747e-05
-0.030982589049503628
-0.00016008184995377342
-0.04020511822996497
-0.00506634252704286
-9.26898050613625e-05
-0.0001901640681574998
-0.039294960695973186
-0.04969718176751537
-0.052213502964942836
-0.011096159892001438
-0.01706551139106756
-0.023166962656982315
-0.005615557491312513
-0.08592234843875664
-0.011365666531512195
-0.08087849875957714
-0.01442345423401611
-0.003596036638362869
-0.0027757671724623545
-0.03787075504316773
-0.0018646760181914102
-0.0004278802955381146
-0.0003397656149502833
-0.003071039806766249
-0.0005080682679607496
-0.035740456226906483
-0.0009931270775294118
-0.011993959484558949
-0.004774169106737922
-0.08640392791382483
-0.013230925666738329
-0.027165206069124353
-0.009636460072513335
-0.09099733507285104
-0.005133987549437691
-0.017584763382374156
-0.012447739152016397
-0.07126048545133679
-0.015564272034266935
-0.0663175338789541
-0.015490705202557705
-0.0007743842354403675
-0.0010386518662502007
-0.08203019839209545
-0.03271698109937601
-0.000640141236494212
-0.04541365470803314
-0.0010329417561088694
-0.025910410200545294
-0.002902462940824816
-0.0666785493305486
-0.004733173962936123
-0.01527981201295154
3.6768034652977675e-06
-0.023694370284911028
-2.4293243604844233e-05
-0.006572366010057894
-0.02788951997289396
-1.8783898987632596e-05
7.927332524811289e-06
-0.08048747074982587
-0.05672358802798127
-0.005721867631571047
-0.06582554490170227
-0.007849164813234612
-0.071670980503265
-0.011538622684942379
-0.0018263460996690779
-0.0016937614610336188
-0.08875228711725311
-0.01808094434661908
-0.0578706364151842
-0.01667227127541197
-0.010271354167205744
-0.018354683912977933
-0.03842335732653039
-0.02546631402988291
-0.022328963734685084
-0.00824377589950263
-0.019516591712260823
-0.010407098001045717
-0.0018879121934395173
-0.0632871001682376
-0.0038082935945802972
-0.07980838778046796
-0.04658389909481167
-0.061032364728716086
-0.07374311435467394
-0.07088632579902264
-0.017019261320917314
-0.02085930916123539
-0.03677864524808318
-0.0055276150063215705
-0.07553581512491661
-0.00895644237359051
-0.013062041638104132
-0.00865934194859743
-0.03243895089602468
-0.0990410310877069
-0.046086023848451604
-0.07139352021448316
-0.006317018859596694
-0.059462014172043026
-0.007795857269021721
-0.0014954705170245235
-0.00037741563427181
-0.03554881788505005
-0.0009320830029748766
-0.07536130413986245
-0.07320796398537378
-0.0765343060252526
-0.03638694086419629
-0.032906808051298864
-0.01792306394550967
-0.041001324370025426
-0.0880496599225311
-0.08685751996573425
-0.08571934124918613
-0.003395360377665703
-0.02713143625009075
-0.003387266733454448
-0.0870700689539763
-0.004436658329793975
-0.039890929297910785
-0.00477064076261618
-0.05138896295359337
-0.00233418638029327
-0.05442480762286994
-0.003306594466085805
-0.02412741031228456
-0.001119939910824324
-0.05301283378976456
-0.0018606509103492332
-0.030863265078864763
-0.012633431934609111
-0.027532680234441154
-0.09457724644761827
-0.01317172230551013
-0.0639343552519281
-0.014482962384215727
-0.04633575483472295
-0.024502558150500082
-0.003814359857631677
-0.00020163561058784193
-0.028310695302149937
-0.0003018929980026605
-0.03506964556469524
-0.03548136767188053
-0.06739930049812226
-0.015487251626999606
-0.0013706585244359511
-0.05527634590893862
-0.002223074032628665
-0.010686105910750976
-0.046924090745604614
-0.009788004182525565
-0.03492753154360031
-0.00016565565484907992
-0.034242047256616885
-0.00034752612306827006
-0.035340027792791405
-0.001880838113678686
-0.0002576346347095423
-0.0002608113464573185
-0.0009382545193057983
-0.00033155046358371087
-0.033397689422596924
-0.0009576787451580173
-0.0061592592693890365
-0.001384015917387938
-0.05813441456423118
-0.0032131404118551014
-0.010848874700819815
2.7680087538775396e-06
-0.013975641245786204
4.502489369092593e-06
-0.07995982661934505
-0.02605846506599343
-0.01431314359159425
-0.03728222840159963
-0.06200719491718918
-0.0006461438753233861
-0.029057336456713174
-0.0010170892098994699
-0.03262724863289442
-0.0022304916812718604
-0.00011252517425511833
-0.00016912711579058663
-0.008060605506901871
-0.01655230570175587
-0.027356856781921682
-0.09554500498416761
-0.049570535909005
-0.06419307895256103
-0.0065116031578698426
-0.0020183122690614775
-0.0013838576250757178
-0.09165875270793156
-0.09851056960080744
-0.07780523867472076
-0.023644065118210905
-0.001785788619007308
-0.002083529137879139
-0.05973668982960541
-0.0007292522980549847
-0.008611342425289069
-0.00085758189046128
-0.08554339627235198
-0.08513433250321488
-0.019412612227716324
-0.0005254488665391964
-0.04457041622114417
-0.0008558771705150544
-0.05208505283843711
-0.003211241636719444
-0.0013159376611817696
-0.05944812102740819
-0.0040314418700287
-0.034943983348753864
-0.001298405265243506
-0.0005945166284831034
-0.00033559566984942506
-0.0820304093052582
-0.06176361318831575
-0.07980982718410032
-0.042649377915587525
-0.08197822175166111
-0.0074381759917899175
-0.08229063725110354
-0.0035361430002377554
-0.011534323730317717
-0.07000644936335944
-0.042889814217462095
-0.01845187383751992
-0.02772524326655886
-0.09781586177146348
-0.015449420394651258
-0.021077446146831342
-0.010231210188480324
-2.8343581411434947e-05
-1.4272943563741504e-05
-6.318742144383189e-05
-0.03021492186790241
-0.003696400161087998
-0.027065715483966246
-7.729913165594594e-05
-0.022667367158654046
-0.051561915049072725
-0.01742184931044438
-0.05981869477308494
-0.0605556773737688
-0.016564327793557904
-0.039573732048201506
-0.011480096408589368
-0.07622421934381376
-0.052358854189897094
-0.07535668167396162
-0.0019801314395400437
-0.03534233975229478
-0.002508846663429587
-0.09282607594240028
-0.0698031961754056
-0.003038914236893027
-0.06751700121459449
-0.001969774397987461
-0.04846421788514942
-0.04309837765432902
-0.003881999570946089
-0.002625079928740473
-0.009425635300695864
-0.024745156014317933
-0.006162224170100236
-0.08885557907905965
-0.0031837177616801447
-0.06630965435934916
-0.0016908955752328117
-0.006226606101186107
-0.028877097391681462
-1.143323064406542e-06
-0.023444651167055672
-5.627763952691757e-05
-0.0038182998595528545
-8.042913487388741e-05
-0.02397394911418954
-0.00013441124916939258
-0.020878692054463504
-0.020909378711142672
-0.06615251663351107
-0.005738632242744084
-6.266893408382723e-05
-0.02547782089905066
-0.00011908459272012236
-0.031171852330991675
-0.002491842705595203
-5.99729239660831e-05
-0.00011885601240131484
-0.06293980395690776
-0.04543844570683248
-0.0013589338724458438
-0.04973973896945192
-0.0020255058688008016
-0.01388833529715545
-0.0039493697937864015
-0.07941489241422249
-0.009202557535344642
-0.06682234170980562
-0.004097183202142716
-0.05520670385579966
-0.005262025675773098
-0.009220237389803617
-0.03564428761748129
-0.007836049337594271
-0.05267388043862201
-0.09043614327408514
-0.08999682398207645
-0.02161228756774523
-0.041630677974989476
-0.014090099349006234
-0.041807146935863196
-0.016626586699763794
-3.66462515776279e-05
-0.00013809779398757274
-0.04158639239910195
-0.0035894145601310596
-0.06463673742131983
-0.005333818241426065
-0.08313028812750585
-0.0048862312614660125
-0.04595005294245488
-0.005487709188234897
-0.030771840464885875
-0.08117869206492331
-0.06042172340279773
-0.031701272446168334
-0.03031140346770723
-0.09270813579214172
-0.0005552806646447525
-0.00010861479395941803
-0.020997885026760334
-0.00024679815321091146
-0.053862333441121464
-0.08896406327063001
-0.02718899528682454
-0.049607427052781664
-0.0313638941794803
-0.004974210863360995
6.918190283021678e-07
-0.009140222148420769
-0.02014522954088509
-0.017145643933248626
5.8073406452566165e-06
7.088765506889891e-06
1.392202012981684e-06
-0.06644064203773889
-0.00524966128305459
-0.005755432646130671
-0.026944827481166198
-0.021492763749000072
-0.0048670745144898725
-0.004403710605945499
-0.0978636076627214
-0.05323413753919382
-0.014886255470730006
-0.048004109998084445
-0.012426988663633301
-0.040039041555456914
-0.09514554041702714
-0.04306232675368475
-0.002287476140855929
-0.057471642037282014
-0.003374316476836028
-0.09130584538416041
-0.010863330863146428
-0.07430825164633457
-0.014645042785965089
-0.09526345733044742
-0.05064166238748358
-0.006356021442715922
-0.07057349411528212
-0.009212476568015809
-0.049786848335720287
-0.014683731737794272
-0.00013223425600698084
-0.000294280042839504
-0.0816360617178022
-0.02119403293337237
-0.0025641505744496917
-0.0026053494560883497
-0.07399598303048358
-0.030876550452811607
-0.06192824546559243
-0.09525909380322006
-0.023135085996004376
-0.013669581981427033
-0.024431042586560738
-0.07424552512052156
-0.04146932489806494
-0.01789977354782998
-0.009967704813203684
-0.030261105452369676
-0.0073360159705704924
-0.040101334234754295
-0.00689790151607989
-0.020270445821726935
-0.0041674980467892395
-0.008192009688483763
-0.07345993113925403
-0.08649967386890604
-0.03278062628119585
-0.003724679987036762
-0.003863655408077149
-0.020964786861408985
-0.00023593193096629764
-0.03878839693383805
-0.00042317492417143346
-0.050654611774215215
-0.008402669004427356
-0.00024358734214037232
-0.0004027700814702896
-0.05185084380569468
-0.02396531655883298
-0.07056067746075222
-0.01703923102021969
-0.006160993934692727
-0.01544246904573022
-0.029575111221497166
-0.0009857869204085924
-0.00026959503995380776
-0.00020123466798478202
-0.09108071800117785
-0.019077931306591273
-0.03277130817061279
-7.137868797016899e-05
-0.00016895451417832022
-0.0796289094869258
-0.006466367921471243
-0.05369837529246962
-0.007398597776557011
-0.06063452897799158
-0.0311239696134961
-0.004149232033546369
-0.07208653223984197
-0.006834198244663246
-0.08324625842487854
-0.004759212496894398
-0.014336182999200043
-0.003207340731851943
-0.09798280141111292
-0.04495045678250408
-0.09521635712981767
-0.06144401917268699
-0.00047120306970357235
-0.021144798646365762
-0.0007662801065793875
-0.020405883233849648
-0.008060847649216234
-0.05456823394877389
-0.010196431929496713
-2.8193449619355193e-06
-0.024493188063534527
-3.147371815334911e-05
-0.02468220166245745
-0.003410571658176799
4.686575453713475e-06
-1.9573538175766403e-05
-0.08900613797281974
-0.016569664112010715
-0.008069695098302333
-0.023475524550819884
-0.05985929001060455
-0.0008948784703527236
-0.03681177515504306
-0.001347669534827649
-0.02773849542513924
-0.0010496360190239773
-0.002114356542450102
-0.06206110149700676
-0.05556301383253534
-0.010127719365133306
-0.052277505323425136
-0.010125700217943522
-0.0010906124063134201
-0.0001298326217452136
-0.024339434706045535
-0.00026738137780297225
-0.08502169080969248
-0.07500145445356843
-0.07851227512807722
-0.01956407923935733
-0.0026376444046882904
-0.06681811366631564
-0.0046108721284336025
-0.060598193035171895
-0.0010923768579588558
-0.006996132795669952
-0.0010206937729071645
-0.03280830534787179
-8.406791232989785e-05
-0.031288546141922856
-0.00021647208458370449
-0.046076657299852414
-0.040940040134388914
-0.00041201312085919524
-0.03908125080201214
-0.0007162363944048459
-0.09795801421793864
-0.02915825873523068
-0.005432915114082126
-0.009707717855587059
-0.05015637647808747
-0.0002569340778974172
-0.02858945885053237
-0.0004987778774539864
-0.010238845133458628
-0.006004096719319714
-0.02185122040560552
-0.030906512792925146
-0.015174763220486177
-0.0006564488408756349
-0.048599938550524815
-0.0012663625873035017
-0.019207428501423644
-0.0006243672316313756
-4.237003853882599e-05
-6.4269476140917e-05
-0.007790895809457645
-0.014759689878931302
-0.05447946043095623
-0.017032781949855937
-0.0285291883524918
-0.08146176048080014
-0.03283057422001121
-0.04460753447927149
-0.00855772641329828
-0.013490535783334723
-0.0013928908191534381
-9.107846260233297e-05
-0.02188309750318046
-0.00015961059975745702
-0.0197303203707779
-0.0210438867676932
-0.009172419263365405
-0.02362969164911773
-0.04882324761874142
-0.021277304571775183
-0.00013060107586209093
-0.00030505843691778275
-0.02571577250015339
-0.09504703654338055
-0.008574128334376629
-0.002506701526464629
-0.0705933469343316
-0.0060804932598517054
-0.07243792418487315
-0.0608430002174739
-0.02798093172490078
-0.07851850661812548
-0.01497524545334935
-0.05969727502987439
-0.014911728254469925
-0.008613346023045471
-0.07068451483320688
-0.011618918982297489
-0.05797761056572356
-0.03153074888889191
-0.06619909839588996
-0.0005822178450516825
-0.00018435764901291235
-0.025273263907285532
-0.0005036598044696905
-0.012913205872560887
-0.004423188362078535
-0.08425329252107137
-0.01126562725068771
-0.07197767375845511
-0.054476726931621804