# vtk DataFile Version 1.0
2D Simulation C++
ASCII
DATASET UNSTRUCTURED_GRID
FIELD FieldData 1
NODES 1 2 int
2209 4256

POINTS 2209 double
0.0 0.0 0.0
0.0 1.0 0.0
1.0 1.0 0.0
1.0 0.0 0.0
0.0 0.02500000037252903 0.0
0.0 0.05000000074505806 0.0
0.0 0.07500000298023224 0.0
0.0 0.10000000149011612 0.0
0.0 0.125 0.0
0.0 0.15000000596046448 0.0
0.0 0.17499999701976776 0.0
0.0 0.20000000298023224 0.0
0.0 0.22499999403953552 0.0
0.0 0.25 0.0
0.0 0.2750000059604645 0.0
0.0 0.30000001192092896 0.0
0.0 0.32499998807907104 0.0
0.0 0.3499999940395355 0.0
0.0 0.375 0.0
0.0 0.4000000059604645 0.0
0.0 0.42500001192092896 0.0
0.0 0.44999998807907104 0.0
0.0 0.4749999940395355 0.0
0.0 0.5 0.0
0.0 0.5249999761581421 0.0
0.0 0.550000011920929 0.0
0.0 0.574999988079071 0.0
0.0 0.6000000238418579 0.0
0.0 0.625 0.0
0.0 0.6499999761581421 0.0
0.0 0.675000011920929 0.0
0.0 0.699999988079071 0.0
0.0 0.7250000238418579 0.0
0.0 0.75 0.0
0.0 0.7749999761581421 0.0
0.0 0.800000011920929 0.0
0.0 0.824999988079071 0.0
0.0 0.8500000238418579 0.0
0.0 0.875 0.0
0.0 0.8999999761581421 0.0
0.0 0.925000011920929 0.0
0.0 0.949999988079071 0.0
0.0 0.9750000238418579 0.0
0.02500000037252903 1.0 0.0
0.05000000074505806 1.0 0.0
0.07500000298023224 1.0 0.0
0.10000000149011612 1.0 0.0
0.125 1.0 0.0
0.15000000596046448 1.0 0.0
0.17499999701976776 1.0 0.0
0.20000000298023224 1.0 0.0
0.22499999403953552 1.0 0.0
0.25 1.0 0.0
0.2750000059604645 1.0 0.0
0.30000001192092896 1.0 0.0
0.32499998807907104 1.0 0.0
0.3499999940395355 1.0 0.0
0.375 1.0 0.0
0.4000000059604645 1.0 0.0
0.42500001192092896 1.0 0.0
0.44999998807907104 1.0 0.0
0.4749999940395355 1.0 0.0
0.5 1.0 0.0
0.5249999761581421 1.0 0.0
0.550000011920929 1.0 0.0
0.574999988079071 1.0 0.0
0.6000000238418579 1.0 0.0
0.625 1.0 0.0
0.6499999761581421 1.0 0.0
0.675000011920929 1.0 0.0
0.699999988079071 1.0 0.0
0.7250000238418579 1.0 0.0
0.75 1.0 0.0
0.7749999761581421 1.0 0.0
0.800000011920929 1.0 0.0
0.824999988079071 1.0 0.0
0.8500000238418579 1.0 0.0
0.875 1.0 0.0
0.8999999761581421 1.0 0.0
0.925000011920929 1.0 0.0
0.949999988079071 1.0 0.0
0.9750000238418579 1.0 0.0
1.0 0.9750000238418579 0.0
1.0 0.949999988079071 0.0
1.0 0.925000011920929 0.0
1.0 0.8999999761581421 0.0
1.0 0.875 0.0
1.0 0.8500000238418579 0.0
1.0 0.824999988079071 0.0
1.0 0.800000011920929 0.0
1.0 0.7749999761581421 0.0
1.0 0.75 0.0
1.0 0.7250000238418579 0.0
1.0 0.699999988079071 0.0
1.0 0.675000011920929 0.0
1.0 0.6499999761581421 0.0
1.0 0.625 0.0
1.0 0.6000000238418579 0.0
1.0 0.574999988079071 0.0
1.0 0.550000011920929 0.0
1.0 0.5249999761581421 0.0
1.0 0.5 0.0
1.0 0.4749999940395355 0.0
1.0 0.44999998807907104 0.0
1.0 0.42500001192092896 0.0
1.0 0.4000000059604645 0.0
1.0 0.375 0.0
1.0 0.3499999940395355 0.0
1.0 0.32499998807907104 0.0
1.0 0.30000001192092896 0.0
1.0 0.2750000059604645 0.0
1.0 0.25 0.0
1.0 0.22499999403953552 0.0
1.0 0.20000000298023224 0.0
1.0 0.17499999701976776 0.0
1.0 0.15000000596046448 0.0
1.0 0.125 0.0
1.0 0.10000000149011612 0.0
1.0 0.07500000298023224 0.0
1.0 0.05000000074505806 0.0
1.0 0.02500000037252903 0.0
0.9750000238418579 0.0 0.0
0.949999988079071 0.0 0.0
0.925000011920929 0.0 0.0
0.8999999761581421 0.0 0.0
0.875 0.0 0.0
0.8500000238418579 0.0 0.0
0.824999988079071 0.0 0.0
0.800000011920929 0.0 0.0
0.7749999761581421 0.0 0.0
0.75 0.0 0.0
0.7250000238418579 0.0 0.0
0.699999988079071 0.0 0.0
0.675000011920929 0.0 0.0
0.6499999761581421 0.0 0.0
0.625 0.0 0.0
0.6000000238418579 0.0 0.0
0.574999988079071 0.0 0.0
0.550000011920929 0.0 0.0
0.5249999761581421 0.0 0.0
0.5 0.0 0.0
0.4749999940395355 0.0 0.0
0.44999998807907104 0.0 0.0
0.42500001192092896 0.0 0.0
0.4000000059604645 0.0 0.0
0.375 0.0 0.0
0.3499999940395355 0.0 0.0
0.32499998807907104 0.0 0.0
0.30000001192092896 0.0 0.0
0.2750000059604645 0.0 0.0
0.25 0.0 0.0
0.22499999403953552 0.0 0.0
0.20000000298023224 0.0 0.0
0.17499999701976776 0.0 0.0
0.15000000596046448 0.0 0.0
0.125 0.0 0.0
0.10000000149011612 0.0 0.0
0.07500000298023224 0.0 0.0
0.05000000074505806 0.0 0.0
0.02500000037252903 0.0 0.0
0.5066560973883975 0.5033117366530276 0.0
0.7121153531249353 0.7024162530680622 0.0
0.7032880680737746 0.29572765642415805 0.0
0.2981337379559822 0.7072421661225117 0.0
0.2953119114057494 0.29643573432620496 0.0
0.7770283623468095 0.5066858940230602 0.0
0.5029085838052981 0.2229276312328338 0.0
0.49320382904802273 0.7782989097735661 0.0
0.2234046161718734 0.4974579959776723 0.0
0.8292737073231606 0.8217163187158327 0.0
0.8206901572064557 0.17174407993412516 0.0
0.18072467713011073 0.8305982980894386 0.0
0.17138872535922736 0.18037170653715248 0.0
0.6436622521164 0.5666666372736271 0.0
0.5647973747427799 0.3675084056546485 0.0
0.4425016451185093 0.6350999189079466 0.0
0.3627237459757356 0.42840062286709524 0.0
0.8454236273427705 0.644873317517152 0.0
0.6452413418333963 0.15632145957191282 0.0
0.350823463807873 0.8424688865196669 0.0
0.15577022843988744 0.35575313315618434 0.0
0.6489450285412357 0.842204194971539 0.0
0.8425310097341865 0.35900796208566504 0.0
0.15938257369373796 0.643634359400525 0.0
0.35884169853965053 0.15773567473823155 0.0
0.6749038278142762 0.44982653774255915 0.0
0.5845458119133655 0.6768313576933844 0.0
0.4474596535264588 0.32041676658832385 0.0
0.3293738684659707 0.5568626172329145 0.0
0.8829172655049552 0.532326952146846 0.0
0.5320933559199045 0.11408293734951903 0.0
0.46767033239803874 0.886468416370455 0.0
0.11420054365242688 0.4695232105260113 0.0
0.8983419205968957 0.7430350872508389 0.0
0.7426392427426125 0.10334256529603007 0.0
0.2596344225655727 0.8980778355157931 0.0
0.10417039893866137 0.25859480359441583 0.0
0.7458384093835158 0.8833728815187722 0.0
0.11957820769575188 0.7450181778800342 0.0
0.8818601954187686 0.25708486226181543 0.0
0.25645037610412547 0.11904195501748219 0.0
0.7423761054726845 0.6048845486177514 0.0
0.6100046665074055 0.251964878691435 0.0
0.3955659804245281 0.7485605196654224 0.0
0.2548115883214456 0.3949824984882513 0.0
0.5240542790030629 0.5926436954442603 0.0
0.8994513186489237 0.8865803636634437 0.0
0.8852286700382059 0.10181741093584538 0.0
0.11689029458503968 0.9003305129386442 0.0
0.10207576918234137 0.11654655989644326 0.0
0.761969052559127 0.39343855181370263 0.0
0.23985046343913308 0.6107384253968421 0.0
0.39131103262950295 0.23688740515753717 0.0
0.898447935607024 0.43854954003218477 0.0
0.4376184314515065 0.10322063402557694 0.0
0.5660056179279807 0.8950632795760224 0.0
0.10371375348307067 0.5643666584271646 0.0
0.7889842521646729 0.7432838145826409 0.0
0.7426960043185199 0.21260345183474955 0.0
0.25825335098027213 0.7897150441346534 0.0
0.2125555691258573 0.25758218459085785 0.0
0.7218283128996165 0.8009304587881992 0.0
0.7947897268063099 0.28444859557921537 0.0
0.20651977359902435 0.718271731705214 0.0
0.28831568546363273 0.20209277526364047 0.0
0.5952535698918604 0.4955673563655171 0.0
0.4916154319205876 0.41197810449339145 0.0
0.42623558499286335 0.5465831554980164 0.0
0.6334443875475577 0.758925661855731 0.0
0.6528057263490306 0.35519134234721517 0.0
0.4965523095671098 0.6924594875398421 0.0
0.35518750119077785 0.6431244186183349 0.0
0.35023057964065174 0.3479986067701942 0.0
0.9169711834869267 0.8166291782343906 0.0
0.816131824661476 0.08525826868459396 0.0
0.18552598759374483 0.9172944820150828 0.0
0.08488003230390766 0.18544615137410267 0.0
0.82855410215048 0.9103547985130676 0.0
0.09194752677045401 0.8294820852370436 0.0
0.9101483987602796 0.17288210913227073 0.0
0.1730243038494121 0.09146582739393463 0.0
0.6989967146172824 0.5189939621882881 0.0
0.6496294424955753 0.649162439408499 0.0
0.5137129129050385 0.3040093950683399 0.0
0.3006695915267567 0.4847895312259365 0.0
0.9186814820258253 0.609126975403603 0.0
0.613824849689919 0.08659696643096662 0.0
0.39632019020396275 0.9212253997887394 0.0
0.08398935690734455 0.3878210335813023 0.0
0.6649296116305625 0.9191104255581639 0.0
0.08239857994857196 0.6627166039456879 0.0
0.9195650824661991 0.3395032265012967 0.0
0.33867658153834 0.0818312208381556 0.0
0.8225047225671748 0.4375307324694355 0.0
0.5673730253929749 0.8169303442553789 0.0
0.4360858962629485 0.1779444967826614 0.0
0.1795380088846885 0.5653809133980378 0.0
0.4346953857274764 0.4585984890261023 0.0
0.8190564379277283 0.5707560942296095 0.0
0.5690230086914271 0.18264339457999454 0.0
0.4313055818312623 0.8189403207019524 0.0
0.18198248436088213 0.43206711925810604 0.0
0.7716994868909272 0.6685400573512704 0.0
0.6691068447939956 0.22613523472998734 0.0
0.33246349020202 0.7759916175384526 0.0
0.22665014017512697 0.3315930460791655 0.0
0.9296440605614325 0.6855567432434374 0.0
0.6857960120576257 0.07275253884582811 0.0
0.31318699247600423 0.9274476830713991 0.0
0.07493311249183825 0.31220694200324145 0.0
0.5622233036543233 0.7408251488892476 0.0
0.6028308575033509 0.4200804019564327 0.0
0.37615456061030844 0.4992327904412442 0.0
0.7344135372458441 0.4598811638331474 0.0
0.4564429233716852 0.2628183227014242 0.0
0.26780848667411566 0.5430562966608565 0.0
0.5879537607318005 0.6149154351786013 0.0
0.41876402003863766 0.387469797867145 0.0
0.5728227514631927 0.5427641662658146 0.0
0.5492060657296375 0.44955008380360423 0.0
0.9348406325345002 0.49776159248778507 0.0
0.4988736453595174 0.06701277588809043 0.0
0.5031779161686893 0.932531155781462 0.0
0.0671036853589398 0.5035844010397237 0.0
0.8457290186598526 0.4996020939456045 0.0
0.4976714033599603 0.15442478700791468 0.0
0.4996021663429465 0.842377347911349 0.0
0.1551535521516676 0.5032995583678549 0.0
0.8449625960364322 0.6988411857277599 0.0
0.6985858997895291 0.15662474157653059 0.0
0.30209471338165267 0.8449723205362386 0.0
0.15690579393168205 0.3020542328938593 0.0
0.7716834651946378 0.8382940453164996 0.0
0.835782858674266 0.23017030039037104 0.0
0.16572131208880017 0.7724122189142272 0.0
0.2289361713285278 0.16502237222110225 0.0
0.762366499214581 0.3287227084336712 0.0
0.23904698071514235 0.6753309220244739 0.0
0.3272869899141801 0.23794494628825183 0.0
0.6403227336796403 0.3023262918908825 0.0
[...]
POINT_DATA 2209
SCALARS Psi double
LOOKUP_TABLE default
0.0
0.0
0.0
0.0
0.0
0.0
0.0
0.0
0.0
0.0
0.0
0.0
0.0
0.0
0.0
0.0
0.0
0.0
0.0
0.0
0.0
0.0
0.0
0.0
0.0
0.0
0.0
0.0
0.0
0.0
0.0
0.0
0.0
0.0
0.0
0.0
0.0
0.0
0.0
0.0
0.0
0.0
0.0
0.0
0.0
0.0
0.0
0.0
0.0
0.0
0.0
0.0
0.0
0.0
0.0
0.0
0.0
0.0
0.0
0.0
0.0
0.0
0.0
0.0
0.0
0.0
0.0
0.0
0.0
0.0
0.0
0.0
0.0
0.0
0.0
0.0
0.0
0.0
0.0
0.0
0.0
0.0
0.0
0.0
0.0
0.0
0.0
0.0
0.0
0.0
0.0
0.0
0.0
0.0
0.0
0.0
0.0
0.0
0.0
0.0
0.0
0.0
0.0
0.0
0.0
0.0
0.0
0.0
0.0
0.0
0.0
0.0
0.0
0.0
0.0
0.0
0.0
0.0
0.0
0.0
0.0
0.0
0.0
0.0
0.0
0.0
0.0
0.0
0.0
0.0
0.0
0.0
0.0
0.0
0.0
0.0
0.0
0.0
0.0
0.0
0.0
0.0
0.0
0.0
0.0
0.0
0.0
0.0
0.0
0.0
0.0
0.0
0.0
0.0
0.0
0.0
0.0
0.0
0.0
0.0
-0.06083077580134598
-0.09081625004497075
-0.014129337792336376
-0.05801232482302306
-0.014099097846741827
-0.03548965719146687
-0.012448795301975128
-0.09325559354056526
-0.024604254072541343
-0.06862723120494488
-0.001529755563752871
-0.0382181973231236
-0.002310281599746204
-0.07306440144140024
-0.03283259390130872
-0.0783809892090597
-0.035461954246122945
-0.040270391608054346
-0.004801290065162759
-0.0696731191593292
-0.007611132666652691
-0.09152561745526439
-0.007416158670758842
-0.021836320881463745
-0.005307788487883612
-0.04173730037693597
-0.09647323285478986
-0.02441429109481272
-0.049074541685324456
-0.013862427972557937
-0.0033933076347316383
-0.07238259589896798
-0.007561301541043969
-0.03155764342834811
-0.0011636570229078904
-0.051172594257122304
-0.0019834525306242326
-0.07407257708185389
-0.017688923054494907
-0.0016066236965321268
-0.0019567708322349824
-0.06536130419468049
-0.0139821366043858
-0.07959980915631884
-0.019819027966081544
-0.0802486280289274
-0.04147997721741834
-9.158546746829812e-05
-0.02789542827796585
-0.000316401707230156
-0.020073950190187973
-0.037213690946323395
-0.01250742484604986
-0.005608323357914681
-0.0027552341119274856
-0.0734452823957693
-0.008681503063579834
-0.07732661294810916
-0.00533855874125183
-0.05366957830929454
-0.006724971227003696
-0.09305609995641231
-0.006840868767253647
-0.03721669629565715
-0.0065353654246158585
-0.05930580685544905
-0.04145766019538815
-0.062333255763788405
-0.10136412258711776
-0.026034876176507984
-0.09181926242503989
-0.06426402708497848
-0.02329944064127475
-0.029808153691971824
-0.00030959333836139407
-0.039978076519277914
-0.0006480726829538526
-0.055505021668880154
-0.01547337488069589
-0.0002470417876345065
-0.0005610571819135621
-0.05405598745020348
-0.0903484979806451
-0.02288008813633496
-0.035361470869356225
-0.011129399770709812
-0.0016451577887520539
-0.0553697824838177
-0.0029814654625371375
-0.06196803021574798
-0.00747186447375065
-0.0015156154607735108
-0.0013891090115630738
-0.01629112283255275
-0.09521857679542453
-0.007797206236097682
-0.02171972666150407
-0.0472042898385245
-0.036196145037906795
-0.008012695308518942
-0.08279721135189072
-0.014072037454602615
-0.07103988155379602
-0.009244978512739581
-0.06850652142676861
-0.01208456808688963
-0.013250927831073338
-0.0008578182292818916
-0.04830080322050458
-0.001558637321157411
-0.10001731415716579
-0.041819641151006844
-0.047982814405632956
-0.03493403178788024
-0.01686994120539776
-0.03640472525220959
-0.0865440729352735
-0.03366757702985884
-0.07107206244370101
-0.049867792611935795
-0.003545509490700211
-0.001261500000665678
-0.053136506982461945
-0.0033164118399620487
-0.018773188405172156
-0.006165481796655016
-0.08614546576521265
-0.014276641804598617
-0.04956410971403749
-0.0037295140198706253
-0.06215030025359451
-0.005589719082308285
-0.08152534166733404
-0.002529119328731422
-0.03057099230054444
-0.003132471624892351
-0.012711112444761419
-0.041997331875366375
-0.010507732322422773
-0.018889957321859115
-0.07151946060645
-0.020927626351589467
-0.05713090661601956
-0.0018272237209074967
-0.0052757653004717455
-0.0012798810749465625
-0.06433274192451309
-0.08553288858838058
-0.017548890606382355
-1.345791780001127e-05
-0.02476797572494917
1.7941416201076638e-05
-0.07161214458416054
-0.004396435582281142
-0.0009632666627648642
-0.04795016098627884
-0.0021476609524569558
-0.015738268666458534
-0.0003391946501262583
-0.03944310298356606
-0.0006422666484991351
-0.047546989865882246
-0.006699935359131098
-0.0002807787972992153
-0.0005070159177362731
-0.059120795933240496
-0.0021269407700969436
-0.0495742093475208
-0.0031722638926472094
-0.08782609698825548
-0.0046279309374436545
-0.023157849381293564
-0.004293856386841833
-0.0824962072020196
-0.060173343446745756
-0.03232359933844271
-0.0504749747442024
-0.022351943435151563
-0.09850237889932958
-0.029049600806460837
-0.07428066712113925
-0.015179610955877122
-0.02478466080478526
-0.02016778328939887
-3.024537549885767e-05
-0.03042538886583862
-0.00014506492253895984
-0.0411291293263232
-0.010945108828871519
-3.174190842491003e-05
-0.0001771220333031209
-0.090787713687159
-0.029263876737086292
-0.020080545322559873
-0.05004726805601978
-0.08799631834471389
-0.025197735457884986
-0.004430301749923344
-0.07407974569684014
-0.008061582514082503
-0.08869014890200533
-0.008310304992577263
-0.051282433662885984
-0.00903654942092487
-0.09811461629750537
-0.054451328559669686
-0.009411153570882515
-0.07659932434336837
-0.013998612343340723
-0.04958779797297849
-0.005558281535654218
-0.0004912778322972224
-0.0006615267593049777
-0.05040487589059068
-0.00044131323626059316
-0.03522071794400577
-0.0008836561511966104
-0.01568329520484541
-0.009107255361952152
-0.02825583329476849
-0.08476711310186671
-0.07785085007232134
-0.0032151538791507605
-0.04339415306822939
-0.004171330809659499
-0.01996669525637792
-0.05181049737759085
-0.0161517813657505
-0.005317216088311102
-0.08076251949289642
-0.003404604878465441
-0.013128737051077227
-0.0986577380223945
-0.07531538749687318
-0.0965868421561861
-0.05706203262968658
-0.07339564039796817
-0.009113579830501968
-0.032358040682414664
-0.007213548480328035
-0.03957909249904571
-0.02480783419644521
-0.027525428752320495
-0.0013741957385898312
-0.0007884858302181856
-0.04520181515326899
-0.002666156273650445
-0.070666499771507
-0.025738545493167276
-0.001086547785275566
-0.0016627233683355266
-0.009275903815768255
-0.0033679452554377823
-0.07596812951896041
-0.008748499568718442
-0.02475715630984932
-0.012375361628747231
-0.03141088163377883
-0.04926740458171493
-0.06315228271213272
-0.03137904840884592
-0.0025873476265753643
-0.06216653698424237
-0.004272602722004134
-0.006063390748516764
-0.0002335852983945515
-0.02985709595220468
-0.00036231872413686287
-0.0032892369752782957
-0.00035956715611322443
-0.035175630487159305
-0.0008239845424533779
-0.032639992157699575
-0.09698277187706593
-0.03671027213534231
-0.04975766872503538
-0.05620722648185194
-0.10084669755341773
-0.0491982459676258
-0.0010289653847228649
-0.044800382135003806
-0.001714382512257058
-0.0831077276779094
-0.009940353958637618
-0.06043109135064251
-0.011430626936035325
-0.05422981058173313
-0.00027760751225222325
-0.02553213926585068
-0.0006399343773388822
-0.06591975909584492
-0.026031728847075216
-0.09572295113380691
-0.07165608532468708
-0.0387947514190946
-0.04368156736030809
-0.0969875553682425
-0.03333824330055232
-0.040401291563642645
-0.06807692845647424
-0.04236440458067279
-0.04461458511175438
-0.01724912397066357
-0.021455594174501234
-0.032068597985177465
-0.08413488317333777
-0.09285321534902205
-0.009834153460859842
-7.574537785666786e-05
-0.02969642614094939
-0.00019264972465166645
-0.038515666355717244
-0.005514394884177333
-7.384185573556161e-05
-0.00022633382563997886
-0.04329633426796244
-0.05167202113871103
-0.056331639239765724
-0.012252966823475693
-0.01909802007062443
-0.024142751441798744
-0.006230430544371618
-0.08757055292633546
-0.01274403151510831
-0.08069774721260893
-0.015651151891604168
-0.003712623989243108
-0.003107519811620681
-0.03613925295994218
-0.002172602611489921
-0.0004042366436075922
-0.0004135235922597191
-0.002904933439126054
-0.0005741717304521274
-0.03381864212022176
-0.0011699993335735014
-0.012587518208558524
-0.00535031640818901
-0.08708784734128855
-0.014660231176060697
-0.030285594290706142
-0.010146355425291846
-0.09178626304996897
-0.0057522357045966255
-0.01917534110891837
-0.013593165247769443
-0.07412125155050245
-0.017446315739547826
-0.06557638070899907
-0.01623940642399243
-0.0007463085556134236
-0.0011680213063510953
-0.08619504767924818
-0.03212494845607445
-0.0006635445163134242
-0.04534694192628114
-0.001187400706775676
-0.026312475156449747
-0.0031596941397674778
-0.06720692368104966
-0.005396375373124884
-0.014316774615396051
1.0926913302393535e-05
-0.0230641715200667
-2.795755452524981e-05
-0.007090813851485525
-0.026407021399874792
-2.1348599793797897e-05
1.378781936316558e-05
-0.08277933765731267
-0.05779448052223107
-0.00620426819755156
-0.06740174496624725
-0.008841399254760029
-0.071017287277275
-0.012419875935335556
-0.001856053614718264
-0.0019093456428484986
-0.09151179439034622
-0.01972851756607401
-0.06133420409844186
-0.018646342039427367
-0.011375790338148053
-0.020472201887550147
-0.0401159408605399
-0.0281262110520659
-0.023527431167783452
-0.009178881232216397
-0.021587802817140733
-0.010565980520222982
-0.002104765506392465
-0.0627534578331974
-0.004415382021057971
-0.0806946446603195
-0.05092045343653315
-0.06385008473582969
-0.07803244616848218
-0.07323226007360675
-0.01873124916484894
-0.02326362058425252
-0.03760734917105783
-0.006068517763606609
-0.07685788671432758
-0.010106135665364193
-0.014018883310858527
-0.00970672634006387
-0.03481242582605302
-0.10117207914977565
-0.050057511476704605
-0.07244894896931191
-0.006812830028229554
-0.061264204046541974
-0.008770675746371885
-0.0014228240651794027
-0.000453241088758789
-0.033749734532884094
-0.0011501937209495265
-0.08001710833970332
-0.07800745583385607
-0.08016653012830086
-0.039939723258569995
-0.035386739389091926
-0.01997082983524898
-0.04467390568216331
-0.092128004279817
-0.09039428978906018
-0.08579210504594145
-0.003517740434342198
-0.02851167251867926
-0.0037980364671829953
-0.0876131337669556
-0.004680846227801556
-0.04151910217708946
-0.005382173753349011
-0.05165877797015917
-0.0024796282918816926
-0.05516985249396181
-0.003743986647884342
-0.02389975165816981
-0.001198899203659192
-0.05275992726914878
-0.002157847353787904
-0.032806746552880364
-0.01402704433926942
-0.030274043460496995
-0.09789104613105255
-0.014338268391407068
-0.0669020301580587
-0.01624170481769313
-0.04959418605211521
-0.02720142012722363
-0.0035625345742658692
-0.00022765547315614624
-0.02669813165703682
-0.0003726664001603668
-0.03873031172792781
-0.038829511660226024
-0.0717231811201499
-0.015494314115691828
-0.001493529651001591
-0.05476838025304725
-0.0025784499968913833
-0.011490830944658593
-0.049427820100631396
-0.01100470542006996
-0.03418032829793691
-0.00014991146067280827
-0.034298475594003834
-0.0004010500778520083
-0.03340511945578895
-0.00218107893777598
-0.00023227916773611143
-0.00030978455133501607
-0.0008879358990979365
-0.0004025772441785609
-0.0313282778498579
-0.0011785852568354676
-0.006258213808080042
-0.0015598232930901965
-0.05711583455862906
-0.0037145249150249723
-0.010877350150350398
4.143287784749172e-06
-0.012682393067876828
5.52370810890923e-06
-0.08211020866804124
-0.02797619749507662
-0.016055043747129943
-0.04047918613053498
-0.06153642507227199
-0.0006427066169338257
-0.029633020353062776
-0.0011543231543719122
-0.03055015118829052
-0.002457269230170925
-9.40345145632792e-05
-0.00020056757950711742
-0.008919951648702299
-0.018407247684291105
-0.028714507649992536
-0.09765875047834496
-0.054015060932553836
-0.063290317116515
-0.007235358353055194
-0.002049374504099033
-0.0015704623958291847
-0.09355408705368856
-0.09995085670717893
-0.07735479973518723
-0.02464950306419852
-0.0018123999579763555
-0.0023458298844726264
-0.05872761940180291
-0.0007183323671045094
-0.00930933454031188
-0.0009737878643439603
-0.08777606231603997
-0.0895163493283223
-0.01869929537546421
-0.0005533127010591814
-0.044121893091245805
-0.0009978683539035081
-0.0564368346830609
-0.0032279518498012152
-0.0014957250125092188
-0.05870808545184097
-0.004571188489792015
-0.03316594340957208
-0.0015019051707719085
-0.000570594080452356
-0.00039669185768273843
-0.08649437910230588
-0.06650520084133364
-0.08293176944119458
-0.04672826082860236
-0.08509707035048115
-0.007738755047700251
-0.08258980300138141
-0.003982827145975774
-0.012689767103418157
-0.07273623326892246
-0.04680560727497281
-0.020401133702260432
-0.03064672197433343
-0.09983987435260623
-0.016999646520740312
-0.023486837911855702
-0.009425435402385503
-2.271398507259626e-05
-4.515476532256774e-06
-7.65882537453739e-05
-0.02850287362752824
-0.0039909834984103824
-0.025805862480705138
-9.193149147386368e-05
-0.02463912559682225
-0.05512828558480089
-0.019474452681680424
-0.06468004180253115
-0.0649537603738238
-0.017875747988925245
-0.04239519992389228
-0.012868810125671168
-0.08029720258944933
-0.05696581295377652
-0.07524504009532068
-0.002030952067718363
-0.036381815801512195
-0.002806699986233639
-0.09444921253347187
-0.07000949177233201
-0.003218607880408432
-0.06751397239028467
-0.0020287074020745696
-0.04958915398571559
-0.04392210355342182
-0.004360577848553714
-0.0029829621843117686
-0.01000714792648107
-0.026692249214712613
-0.006888293263994671
-0.09165190436237988
-0.0032214192406839932
-0.06578079073461207
-0.0019233201147884358
-0.006884158054213403
-0.02789171651868145
1.1095552994231818e-05
-0.023738483090711304
-6.477488845627283e-05
-0.003485734258036724
-8.486539326233418e-05
-0.0223609855062553
-0.0001696355533599696
-0.022800603176448716
-0.023343544776328468
-0.06998778901495885
-0.005151851674578445
-6.182872063993835e-05
-0.023898611357266092
-0.0001454427670432224
-0.02914167362256189
-0.0027191942518599017
-4.742410290082997e-05
-0.00014538219974114888
-0.06664625868471531
-0.04511905057676921
-0.00142559689996814
-0.05014500307084974
-0.002299322370235156
-0.014460518140616834
-0.0044054182163850535
-0.07990690317658408
-0.01031112520130918
-0.06744378037476892
-0.004358860709425923
-0.05656389904759972
-0.005925888392413946
-0.009873199476236673
-0.03786100722265366
-0.008829841850987792
-0.0556725283022235
-0.090833717954942
-0.09028859845810021
-0.023286605235170427
-0.04487417171661345
-0.01578500437760194
-0.040922644702517635
-0.017161609922723843
-1.8974019265279667e-05
-0.0001587274205673381
-0.04218821345235215
-0.003872995995024973
-0.0655369352791147
-0.006046221628353636
-0.08383116439894416
-0.005186518262951603
-0.04762376436025096
-0.006180445023687571
-0.03403031111463015
-0.0857733173842833
-0.06519606863940741
-0.03485800197845758
-0.0336137931205464
-0.09380164825876433
-0.0005147916185655036
-0.0001298311245335407
-0.018990657793633355
-0.00029762597811396475
-0.05822721571028843
-0.09009192113884194
-0.030183545692616057
-0.053981220627852544
-0.034808869761025284
-0.00555132996776827
1.725825562745746e-06
-0.008234897636688263
-0.018583466038776586
-0.016616771646596553
7.01139051388907e-06
9.761750445771052e-06
2.6054065695738594e-06
-0.0710389498188333
-0.0055229615521543785
-0.006038785444080045
-0.02857943787430995
-0.02305054571928593
-0.0054673681192270685
-0.004938620304779216
-0.10053100368734069
-0.05718023336303643
-0.0161315263708801
-0.05103610393551333
-0.013929181675102214
-0.04322262333888351
-0.09791682060349025
-0.04321676191778786
-0.0024336186022689533
-0.05797174979891528
-0.0038547232325972323
-0.09521712682316402
-0.011898111863094352
-0.0768431094559433
-0.016409041259976796
-0.09863678502579132
-0.05184137141012091
-0.006929836200602494
-0.0721339796762129
-0.01032521790103607
-0.048856312192357976
-0.015243159473772618
-0.00010803003312309305
-0.00033911740391827226
-0.0814942268607704
-0.022448839751292245
-0.0026151088851812856
-0.0029195075127559336
-0.07769890394132054
-0.03336735657838904
-0.06631548377717074
-0.09629006243188343
-0.025497299737461433
-0.015168214091797338
-0.02708016083332438
-0.0788604725744328
-0.04363626817463189
-0.019186184036220646
-0.01117557375143588
-0.03295820274764645
-0.007812676560750055
-0.04217533682385234
-0.007761122431359145
-0.020914555544271973
-0.00462098029974259
-0.009267131977946302
-0.07668329465572696
-0.08676915878890498
-0.03421622651549501
-0.0039006495820025403
-0.004364536809780806
-0.020338576519286305
-0.0002335147713218193
-0.038211722206052234
-0.0004963946167352885
-0.04940013429477603
-0.008890958543182389
-0.00021581044738789806
-0.0004631882389698159
-0.0552807477025284
-0.026501968349439617
-0.07543361588411938
-0.017821028986472844
-0.006844164946908604
-0.017060235012242117
-0.02790676734312001
-0.001172798847431539
-0.0002525469568906179
-0.00024150245335045577
-0.09429948828567963
-0.01817189336378566
-0.03216758999579649
-6.212510327589918e-05
-0.00020047430561660965
-0.08074640439788469
-0.006936616811737937
-0.05561000011842495
-0.008300458380304144
-0.0653866670923717
-0.03179915425180118
-0.0045609231568185474
-0.07297752639185173
-0.0077301124856236515
-0.08326200474189627
-0.0049650625860565515
-0.015560064892921322
-0.0036215413546242456
-0.09984641074892125
-0.04919278460534992
-0.09604499718926254
-0.06074604066394903
-0.0004489991995924962
-0.0217713817538677
-0.000866991762695008
-0.022743572797343924
-0.008010001773025804
-0.053506049278921615
-0.009416415818777422
3.453107103195008e-06
-0.023582908543309893
-3.696357537038086e-05
-0.023002889333354364
-0.003758111729444173
9.474343500432885e-06
-2.2642454813408836e-05
-0.09309412937501771
-0.017536886444008012
-0.009056514416729168
-0.02562540076569543
-0.05939319103423548
-0.0008919246654969816
-0.03743445176508425
-0.0015334532516151265
-0.030143542407841017
-0.001187278846644257
-0.0024632091830493513
-0.06405167490405018
-0.05790705999921855
-0.010936432064285876
-0.05485513748422565
-0.011400809749025295
-0.0009804531876580955
-0.00015138643330792835
-0.022431948612206362
-0.0003331722996893233
-0.0873168214504178
-0.07545961746477729
-0.07960719441747059
-0.019969125470474212
-0.0028922141162567886
-0.06705856920458364
-0.005251483366086192
-0.05945408524707495
-0.0010848225434493396
-0.007629292180526197
-0.0011590561494249755
-0.03184994549593182
-6.781878160184734e-05
-0.03141250864035924
-0.0002532854216892277
-0.04995710120322966
-0.04030475441566618
-0.0004058796798739053
-0.039310503279427034
-0.0008220743395349264
-0.09931924117306389
-0.030170544299743286
-0.005998310355726748
-0.010915717572955421
-0.04938419438226515
-0.0002318060798235123
-0.029161269101867622
-0.0005692431309126156
-0.010822952320157687
-0.006744905492830107
-0.023699666974978793
-0.032262588832570605
-0.014745749734027409
-0.0007132544319936414
-0.04812500980451605
-0.0014885408070810173
-0.017318137278790138
-0.0007079240797513364
-3.599654845222684e-05
-7.58494972575888e-05
-0.008633718275855986
-0.016491805840209962
-0.0590640609741439
-0.01888060870960318
-0.03152632891019859
-0.08500366433490163
-0.0361451506792424
-0.04618125591763075
-0.009406807885298903
-0.015069466554860737
-0.001273270927126934
-0.00010194052460712534
-0.020303006217010745
-0.00019466769775415018
-0.022056126657830823
-0.02233023310139959
-0.010252350986295662
-0.025917468094500913
-0.04799980472804582
-0.02187480087231845
-0.0001054161463604424
-0.0003472472810249908
-0.028064374970830783
-0.09630975848192903
-0.008779987745827736
-0.0028233177182500255
-0.07040650634793016
-0.00687394394719706
-0.07722849527055971
-0.06263487659517443
-0.031122718840489675
-0.08037550244976138
-0.01632423970176478
-0.06290322658892941
-0.016685832731484333
-0.00940224244702849
-0.07277520571643618
-0.01304830758147611
-0.0625968358635112
-0.03487969007073277
-0.07038526392251443
-0.0005315765446436694
-0.00022896562989255505
-0.02350258774643485
-0.0006174137748807063
-0.013487313126139284
-0.004951850736742911
-0.08503666512621715
-0.012548912134874291
-0.07564245169581967
-0.05919063186046407
-0.02965578302616474
-0.0157851690233964
-0.020233723830023188
-0.09793497310093438