# vtk DataFile Version 1.0
2D Simulation C++
ASCII
DATASET UNSTRUCTURED_GRID
FIELD FieldData 1
NODES 1 2 int
2209 4256

POINTS 2209 double
0.0 0.0 0.0
0.0 1.0 0.0
1.0 1.0 0.0
1.0 0.0 0.0
0.0 0.02500000037252903 0.0
0.0 0.05000000074505806 0.0
0.0 0.07500000298023224 0.0
0.0 0.10000000149011612 0.0
0.0 0.125 0.0
0.0 0.15000000596046448 0.0
0.0 0.17499999701976776 0.0
0.0 0.20000000298023224 0.0
0.0 0.22499999403953552 0.0
0.0 0.25 0.0
0.0 0.2750000059604645 0.0
0.0 0.30000001192092896 0.0
0.0 0.32499998807907104 0.0
0.0 0.3499999940395355 0.0
0.0 0.375 0.0
0.0 0.4000000059604645 0.0
0.0 0.42500001192092896 0.0
0.0 0.44999998807907104 0.0
0.0 0.4749999940395355 0.0
0.0 0.5 0.0
0.0 0.5249999761581421 0.0
0.0 0.550000011920929 0.0
0.0 0.574999988079071 0.0
0.0 0.6000000238418579 0.0
0.0 0.625 0.0
0.0 0.6499999761581421 0.0
0.0 0.675000011920929 0.0
0.0 0.699999988079071 0.0
0.0 0.7250000238418579 0.0
0.0 0.75 0.0
0.0 0.7749999761581421 0.0
0.0 0.800000011920929 0.0
0.0 0.824999988079071 0.0
0.0 0.8500000238418579 0.0
0.0 0.875 0.0
0.0 0.8999999761581421 0.0
0.0 0.925000011920929 0.0
0.0 0.949999988079071 0.0
0.0 0.9750000238418579 0.0
0.02500000037252903 1.0 0.0
0.05000000074505806 1.0 0.0
0.07500000298023224 1.0 0.0
0.10000000149011612 1.0 0.0
0.125 1.0 0.0
0.15000000596046448 1.0 0.0
0.17499999701976776 1.0 0.0
0.20000000298023224 1.0 0.0
0.22499999403953552 1.0 0.0
0.25 1.0 0.0
0.2750000059604645 1.0 0.0
0.30000001192092896 1.0 0.0
0.32499998807907104 1.0 0.0
0.3499999940395355 1.0 0.0
0.375 1.0 0.0
0.4000000059604645 1.0 0.0
0.42500001192092896 1.0 0.0
0.44999998807907104 1.0 0.0
0.4749999940395355 1.0 0.0
0.5 1.0 0.0
0.5249999761581421 1.0 0.0
0.550000011920929 1.0 0.0
0.574999988079071 1.0 0.0
0.6000000238418579 1.0 0.0
0.625 1.0 0.0
0.6499999761581421 1.0 0.0
0.675000011920929 1.0 0.0
0.699999988079071 1.0 0.0
0.7250000238418579 1.0 0.0
0.75 1.0 0.0
0.7749999761581421 1.0 0.0
0.800000011920929 1.0 0.0
0.824999988079071 1.0 0.0
0.8500000238418579 1.0 0.0
0.875 1.0 0.0
0.8999999761581421 1.0 0.0
0.925000011920929 1.0 0.0
0.949999988079071 1.0 0.0
0.9750000238418579 1.0 0.0
1.0 0.9750000238418579 0.0
1.0 0.949999988079071 0.0
1.0 0.925000011920929 0.0
1.0 0.8999999761581421 0.0
1.0 0.875 0.0
1.0 0.8500000238418579 0.0
1.0 0.824999988079071 0.0
1.0 0.800000011920929 0.0
1.0 0.7749999761581421 0.0
1.0 0.75 0.0
1.0 0.7250000238418579 0.0
1.0 0.699999988079071 0.0
1.0 0.675000011920929 0.0
1.0 0.6499999761581421 0.0
1.0 0.625 0.0
1.0 0.6000000238418579 0.0
1.0 0.574999988079071 0.0
1.0 0.550000011920929 0.0
1.0 0.5249999761581421 0.0
1.0 0.5 0.0
1.0 0.4749999940395355 0.0
1.0 0.44999998807907104 0.0
1.0 0.42500001192092896 0.0
1.0 0.4000000059604645 0.0
1.0 0.375 0.0
1.0 0.3499999940395355 0.0
1.0 0.32499998807907104 0.0
1.0 0.30000001192092896 0.0
1.0 0.2750000059604645 0.0
1.0 0.25 0.0
1.0 0.22499999403953552 0.0
1.0 0.20000000298023224 0.0
1.0 0.17499999701976776 0.0
1.0 0.15000000596046448 0.0
1.0 0.125 0.0
1.0 0.10000000149011612 0.0
1.0 0.07500000298023224 0.0
1.0 0.05000000074505806 0.0
1.0 0.02500000037252903 0.0
0.9750000238418579 0.0 0.0
0.949999988079071 0.0 0.0
0.925000011920929 0.0 0.0
0.8999999761581421 0.0 0.0
0.875 0.0 0.0
0.8500000238418579 0.0 0.0
0.824999988079071 0.0 0.0
0.800000011920929 0.0 0.0
0.7749999761581421 0.0 0.0
0.75 0.0 0.0
0.7250000238418579 0.0 0.0
0.699999988079071 0.0 0.0
0.675000011920929 0.0 0.0
0.6499999761581421 0.0 0.0
0.625 0.0 0.0
0.6000000238418579 0.0 0.0
0.574999988079071 0.0 0.0
0.550000011920929 0.0 0.0
0.5249999761581421 0.0 0.0
0.5 0.0 0.0
0.4749999940395355 0.0 0.0
0.44999998807907104 0.0 0.0
0.42500001192092896 0.0 0.0
0.4000000059604645 0.0 0.0
0.375 0.0 0.0
0.3499999940395355 0.0 0.0
0.32499998807907104 0.0 0.0
0.30000001192092896 0.0 0.0
0.2750000059604645 0.0 0.0
0.25 0.0 0.0
0.22499999403953552 0.0 0.0
0.20000000298023224 0.0 0.0
0.17499999701976776 0.0 0.0
0.15000000596046448 0.0 0.0
0.125 0.0 0.0
0.10000000149011612 0.0 0.0
0.07500000298023224 0.0 0.0
0.05000000074505806 0.0 0.0
0.02500000037252903 0.0 0.0
0.5069719381789987 0.5038366889043283 0.0
0.7125936463301535 0.7033681674624519 0.0
0.7036034240942393 0.2960706890966227 0.0
0.29838642859513814 0.7068775442368543 0.0
0.2962324756594167 0.2969505724591628 0.0
0.7774148038348326 0.5070097782690544 0.0
0.5035805689902506 0.22289337603265835 0.0
0.49329388244851824 0.77860239585754 0.0
0.22434570462663755 0.49742453685043003 0.0
0.8296905854529097 0.8217994086032248 0.0
0.8211299786052972 0.17268797277479983 0.0
0.18166334033719922 0.8304096534764913 0.0
0.17235999331528512 0.18082922948453858 0.0
0.6438432712510668 0.5666153508224929 0.0
0.5646724912437644 0.3684619360198375 0.0
0.4430772565575875 0.6352683983946233 0.0
0.3638158284142501 0.42895335313659616 0.0
0.8451891848464853 0.6452461344697715 0.0
0.6455726455712153 0.156456443708333 0.0
0.3514615027034306 0.843320440889862 0.0
0.15629955916132235 0.3565299087187213 0.0
0.6496126885676443 0.8421415556214795 0.0
0.8428135401041656 0.35985235881844546 0.0
0.15923949109169608 0.6439192707926289 0.0
0.35931631863658137 0.15811432616401017 0.0
0.6749567856625681 0.4500952575853907 0.0
0.5845125367307181 0.6772865924858755 0.0
0.4478607982043339 0.321314099113852 0.0
0.33001582943241736 0.5567980737864228 0.0
0.8832329589935841 0.5333209380930273 0.0
0.5324465336896153 0.1143238022906904 0.0
0.46799831864122504 0.8871801834660062 0.0
0.11447213671874404 0.4697064596142855 0.0
0.8984860611306991 0.7431098550663603 0.0
0.7429141727114228 0.1039396721910933 0.0
0.25977097759119755 0.8977953151072686 0.0
0.10429947628639458 0.25954326732724414 0.0
0.74628398570942 0.8843997753118653 0.0
0.11972655567587367 0.7455443866304209 0.0
0.882434442531718 0.25776542967026544 0.0
0.25713356805895965 0.11970827155918233 0.0
0.7425642293825967 0.6050770733846312 0.0
0.6103944892698461 0.2520891090259921 0.0
0.39646527170909585 0.749269381307172 0.0
0.2552784856553988 0.39549911294790635 0.0
0.5247648320760411 0.5927708537254103 0.0
0.9003620002967311 0.886900791572356 0.0
0.8856001052367294 0.10196939378118633 0.0
0.11705432526487715 0.9007187775795323 0.0
0.10196211400769237 0.11684047291242727 0.0
0.7627982618683096 0.3937265249470516 0.0
0.2399472668532192 0.6111163249489996 0.0
0.39155879006680894 0.2370391559989093 0.0
0.8982451054334746 0.43876191735402326 0.0
0.43780604196052236 0.10305861751695596 0.0
0.5664084497361223 0.8955728184517099 0.0
0.10399981507570123 0.5647320214430789 0.0
0.7893838786213533 0.7439176522582586 0.0
0.7432634912183032 0.2130672013876725 0.0
0.2585799037528193 0.7901505053302585 0.0
0.21287322982881215 0.25788182411809585 0.0
0.7218538463590414 0.8015358399285435 0.0
0.7951091765684505 0.2852101158910924 0.0
0.20681653059825628 0.7184497695601347 0.0
0.2885008237043888 0.2020751541502456 0.0
0.5951981753753466 0.49617184232137135 0.0
0.4921260459617219 0.413251295195066 0.0
0.42669139219739693 0.5472312364069416 0.0
0.6338189375906501 0.7592184648102469 0.0
0.6529660132536016 0.3559424034111164 0.0
0.4972523953065097 0.6932212524053345 0.0
0.3555261427452326 0.6432776969069517 0.0
0.35105775697790736 0.3484672706219886 0.0
0.9171442968226187 0.8170954700636092 0.0
0.8162095210198391 0.08478666644338712 0.0
0.18637615726698423 0.9179409296876394 0.0
0.08506219510119098 0.18624225555195592 0.0
0.8289984567695337 0.9113615943650292 0.0
0.09220073006567994 0.8294988915531696 0.0
0.9099862351005464 0.1730812300053155 0.0
0.17321608239427352 0.09189979826161519 0.0
0.6993811461842159 0.5194616582757313 0.0
0.6499173959018378 0.6496571906079004 0.0
0.5139356585416398 0.30462659657410945 0.0
0.30167260898912723 0.48491612159186953 0.0
0.9185441929700378 0.609236189038372 0.0
0.614520294592152 0.0866519024783396 0.0
0.39691719844729195 0.9214475811755062 0.0
0.0841306046029725 0.38815532570328437 0.0
0.6655028923503187 0.9198474933795994 0.0
0.08250478073666628 0.6636475770726441 0.0
0.9204564403794813 0.3397791296675027 0.0
0.3395958593939766 0.08227662489931621 0.0
0.8224646218907126 0.43837610686999134 0.0
0.5681906985379349 0.8170759014481579 0.0
0.43631515914773145 0.17765659561005936 0.0
0.17983963591831992 0.5653599919656085 0.0
0.43500213462579473 0.45908653356306317 0.0
0.8197032230513494 0.5716187243591804 0.0
0.569309369965681 0.18251681287414562 0.0
0.43148222922449697 0.819595369358726 0.0
0.18262593797942836 0.4325412320676065 0.0
0.7722713039404693 0.6694239870818082 0.0
0.669368070463138 0.2267929413655007 0.0
0.3324439116695418 0.7763342994868914 0.0
0.22744574690400549 0.3324741750601569 0.0
0.9300713684867704 0.6856314119854457 0.0
0.6862969586797979 0.07322633112843803 0.0
0.31377038276837693 0.9280324460935915 0.0
0.07539098163270605 0.3127666745913633 0.0
0.5628247710012144 0.7410132804969737 0.0
0.6030739141916044 0.42049418903877983 0.0
0.37656775227592015 0.4995966560833664 0.0
0.734885191685167 0.4600376878383696 0.0
0.4570462594763139 0.2634759404946831 0.0
0.2682006406675893 0.5432482180343496 0.0
0.588176609714834 0.6150673188922963 0.0
0.4189850535038837 0.38768670858234866 0.0
0.5728900223600321 0.5429152057855723 0.0
0.5494442741876774 0.44936410722096953 0.0
0.9351096813778239 0.49786830066541116 0.0
0.4993000622143766 0.06754921139713362 0.0
0.5030520056550923 0.933365904627481 0.0
0.06751332676471371 0.5038521248617116 0.0
0.8459079830428411 0.5002438643407643 0.0
0.4980784256671635 0.15490474764724 0.0
0.5004159523054186 0.8434004721940023 0.0
0.15590365484998067 0.503875232080558 0.0
0.8454953995827263 0.6990260705613995 0.0
0.6989787975305741 0.15682225624834095 0.0
0.30240043959248564 0.8448231542836848 0.0
0.15716924510331548 0.30279856393593796 0.0
0.772544408240933 0.8387983617167027 0.0
0.83579880384599 0.23046012496713028 0.0
0.16597709080572223 0.7732091924297186 0.0
0.2293976643467666 0.1653187728648174 0.0
0.7627827840181534 0.3291502143855648 0.0
0.2389984148063507 0.6750446744491175 0.0
0.32726866524402604 0.2384425910732913 0.0
0.6401621341742271 0.30254896013071764 0.0
[...]
POINT_DATA 2209
SCALARS Psi double
LOOKUP_TABLE default
0.0
0.0
0.0
0.0
0.0
0.0
0.0
0.0
0.0
0.0
0.0
0.0
0.0
0.0
0.0
0.0
0.0
0.0
0.0
0.0
0.0
0.0
0.0
0.0
0.0
0.0
0.0
0.0
0.0
0.0
0.0
0.0
0.0
0.0
0.0
0.0
0.0
0.0
0.0
0.0
0.0
0.0
0.0
0.0
0.0
0.0
0.0
0.0
0.0
0.0
0.0
0.0
0.0
0.0
0.0
0.0
0.0
0.0
0.0
0.0
0.0
0.0
0.0
0.0
0.0
0.0
0.0
0.0
0.0
0.0
0.0
0.0
0.0
0.0
0.0
0.0
0.0
0.0
0.0
0.0
0.0
0.0
0.0
0.0
0.0
0.0
0.0
0.0
0.0
0.0
0.0
0.0
0.0
0.0
0.0
0.0
0.0
0.0
0.0
0.0
0.0
0.0
0.0
0.0
0.0
0.0
0.0
0.0
0.0
0.0
0.0
0.0
0.0
0.0
0.0
0.0
0.0
0.0
0.0
0.0
0.0
0.0
0.0
0.0
0.0
0.0
0.0
0.0
0.0
0.0
0.0
0.0
0.0
0.0
0.0
0.0
0.0
0.0
0.0
0.0
0.0
0.0
0.0
0.0
0.0
0.0
0.0
0.0
0.0
0.0
0.0
0.0
0.0
0.0
0.0
0.0
0.0
0.0
0.0
0.0
-0.060427351573020004
-0.09046195704052433
-0.01396288855815367
-0.05761146785848822
-0.013980228981498222
-0.03516729407868585
-0.012277809124093302
-0.09285169106950188
-0.02438409240222966
-0.06840904961346327
-0.0015268433405435946
-0.03826532015910026
-0.002286674207970741
-0.07253948328000283
-0.03261551124619871
-0.0778551437947663
-0.035184884971337115
-0.040202876753656545
-0.004753785030170417
-0.06946609173952119
-0.007587105181725187
-0.09131602655295798
-0.007359181189981137
-0.02163674620952707
-0.00525215085597421
-0.04138676872099019
-0.09596246796752939
-0.024212915377050743
-0.04865187052804363
-0.013732467736059675
-0.0033699516954769602
-0.07207299900550872
-0.007476396103343556
-0.0316377886777609
-0.0011593860279542813
-0.05113832610622505
-0.0019766996055230776
-0.07368184299665528
-0.01763120043188627
-0.0015941558351521784
-0.0019629136866428894
-0.06500660898081609
-0.013804152681206284
-0.07933746257669327
-0.019575812297818008
-0.07968616951180409
-0.04112351218743587
-9.350330162756605e-05
-0.027969403708716308
-0.0003145648980852103
-0.01978437319234885
-0.03690700692900196
-0.012322060086771098
-0.00556740922286718
-0.002717694704693545
-0.0730651775985688
-0.008637980489300692
-0.07709702128179594
-0.005309640035078334
-0.05353947019526415
-0.006665222882198336
-0.09283855296962766
-0.006800186995410363
-0.03701548944874346
-0.006468907459573281
-0.05885858031655491
-0.04120404685110303
-0.06184352282455353
-0.10101358424368277
-0.025777436154668425
-0.09140637768330247
-0.06385978137651073
-0.023120586166474024
-0.02950222395611747
-0.0003049084289313214
-0.039899547338149675
-0.0006459310614560929
-0.05506565669300938
-0.015629238649647395
-0.0002489719022356127
-0.00055869721095235
-0.0535866445826722
-0.08987116470093517
-0.022699887429116054
-0.03503115739974693
-0.011020783027940602
-0.001629287739776301
-0.05525863144767964
-0.0029529949904840347
-0.061362637763692426
-0.007409985556365662
-0.0014894864320950673
-0.0013864068016242194
-0.016187827998470895
-0.09495392785903518
-0.0076631716291046
-0.021552098237681123
-0.04675804860762926
-0.03594169783900507
-0.007876720381408369
-0.0824961475217769
-0.014002674742761264
-0.0705534108683558
-0.009150250167624456
-0.06821430018288159
-0.012011691126825059
-0.01299184103669495
-0.0008482113734803028
-0.04794043279751724
-0.0015631473534794109
-0.09964166955653413
-0.04137122978514405
-0.047549323988962985
-0.03466030161983397
-0.016697423506879864
-0.03610708677642071
-0.0859456251914577
-0.03324498551107648
-0.07042167715142107
-0.0493098144166399
-0.0034791498887525355
-0.0012598859070589992
-0.0526007953387885
-0.0033341778301938275
-0.018676630371870055
-0.006097023933333946
-0.08582135396365344
-0.014179597370210644
-0.04931128410635281
-0.0036914384061561335
-0.06203160229428953
-0.005545270684206092
-0.08116462288867254
-0.0025237910810324547
-0.030507153432501318
-0.0031091364068789405
-0.012564769298085756
-0.04172437254222225
-0.010412705585347647
-0.018757041465813497
-0.0712754815407715
-0.020706153578475436
-0.05701195250151888
-0.0018039494913769686
-0.005246085435859486
-0.0012870227462834294
-0.06388092466454376
-0.08506089086833366
-0.017677136346052245
-1.3682520751733363e-05
-0.02469111273549385
1.7432799827521378e-05
-0.07112488395609623
-0.004299406635231039
-0.0009599509362561609
-0.047628654300023145
-0.002131682519494913
-0.015764588664303174
-0.0003347424620915604
-0.03925009390801073
-0.0006365727786655586
-0.04736493184248023
-0.006684771525909014
-0.00027594505984143805
-0.0005012145668263576
-0.05897137699222933
-0.0021367558132668286
-0.049564157065862625
-0.0031560688125283763
-0.08750460520199636
-0.0045727916041256355
-0.023173910977220588
-0.00426854482686919
-0.08207875441422202
-0.05955283873167417
-0.03195039555627487
-0.05011916505220907
-0.02212142239176537
-0.09815948253329557
-0.02868079892685456
-0.07405464222391883
-0.014979054871970448
-0.024535715954883013
-0.020089981792489147
-2.981154055231567e-05
-0.0301549722510041
-0.00014262673873541035
-0.04086547082810326
-0.010989591673525487
-3.172835892153413e-05
-0.0001767506838180061
-0.0902014434818242
-0.02887808062892279
-0.019871153681823253
-0.04971702671855096
-0.08766119093475305
-0.025081787213949443
-0.004375694127032435
-0.07364563946143422
-0.007973045557656528
-0.08845427626099613
-0.008236614595217271
-0.05103830184932874
-0.008937001883735753
-0.09785202357927261
-0.05410077581285203
-0.00933401222338331
-0.07635232525442112
-0.013825037685356674
-0.04933526392689053
-0.005588085923608008
-0.0004927611585153089
-0.0006706845420014854
-0.050043083710606166
-0.00043629036467887665
-0.03527236822713658
-0.0008828370385175661
-0.015473896166017664
-0.008964194832323262
-0.0279701672529366
-0.0842957967092844
-0.0777519264561939
-0.003185741965148644
-0.04333301836591738
-0.0041390011205899874
-0.019661896003993536
-0.051461772199121285
-0.015989760674384252
-0.005274576819519475
-0.08051150424098502
-0.0033722444281742278
-0.013006206386599405
-0.09834796374734349
-0.07482690886142866
-0.09630759163304607
-0.05664892993154562
-0.07280159245681796
-0.008934313737183055
-0.0321480534455879
-0.0071257015350619955
-0.03920852862588973
-0.02461902791207668
-0.02723941662470938
-0.0013414126990036247
-0.0007746846795662988
-0.0443854323221152
-0.002673335444116104
-0.0703567107543772
-0.025669827322859665
-0.0010880322570311896
-0.0016497439867660631
-0.009160118169455478
-0.0033234708545126224
-0.07549597123009863
-0.008697961740286574
-0.024514509184734447
-0.01222535516295857
-0.031164820444427924
-0.0488242049407423
-0.06265714254829681
-0.031084279514048387
-0.0025627448977122358
-0.06195498119543677
-0.0042118404042786346
-0.005977052516791174
-0.0002320800346077564
-0.02961690276211568
-0.00036995679157556357
-0.003259750908770218
-0.00035346145057668367
-0.03494082806762009
-0.0008201355296801042
-0.032409807601175435
-0.09655877316411905
-0.036334133214435925
-0.04925375519509313
-0.05571022022277723
-0.10042127501266017
-0.04892595084856618
-0.001020872980729927
-0.04475413928009493
-0.0017088367612930208
-0.0827130880751101
-0.00980637761683589
-0.06010166103962137
-0.01130891803888557
-0.05401538298862282
-0.0002826210677543488
-0.02549050429212569
-0.0006380943059882552
-0.06548026999136367
-0.0257977385108326
-0.09529325034533968
-0.07112233074644408
-0.03842509281321716
-0.04328900487691851
-0.09665494860564348
-0.033038926265993196
-0.040073109372806316
-0.06750562713546132
-0.04205468453193435
-0.04426533978871329
-0.017054004391256563
-0.021233476261529608
-0.03180556309727021
-0.08355782773776821
-0.09239515877184198
-0.009743182044096712
-7.608929931924178e-05
-0.029669578915177974
-0.0001958217126644829
-0.038221138372517324
-0.005445869586504632
-7.340852353255837e-05
-0.00022372353296132354
-0.04290928972765184
-0.05130175213198335
-0.05597587175123551
-0.01209152260293367
-0.01890410310357222
-0.02386965040960532
-0.006158892202849996
-0.08719390301791728
-0.012624291308169135
-0.08055795231840751
-0.015481390564931115
-0.0036610203918185703
-0.0030931368514480763
-0.03561995153221212
-0.002144033395714403
-0.0003857695110355838
-0.0004088536986235165
-0.0028974318639603744
-0.0005710326103083473
-0.03334418316427067
-0.0011604876627705006
-0.012462973865175529
-0.00527483809271645
-0.08679247240439394
-0.01454975582145515
-0.029873017658963722
-0.009995876237896186
-0.09148265855506339
-0.005691122374561251
-0.019047768129395872
-0.013479916984467571
-0.07383363161313342
-0.01728620348024952
-0.0653115639405118
-0.016264842355228962
-0.0007475933587269036
-0.0011729322098863856
-0.08572737305255607
-0.031870861920410554
-0.0006568619224744646
-0.0452645499194634
-0.0011786337886583096
-0.026203915194305843
-0.0031302177257893768
-0.06680100460443683
-0.00534710475226401
-0.01422167938670361
1.0402863064161155e-05
-0.022895246874938917
-2.8093289508801505e-05
-0.007117361461523794
-0.026066588111388678
-2.1459606125905424e-05
1.3154042442817943e-05
-0.08254450679379036
-0.057671889355400976
-0.006158303973761561
-0.06708227038008836
-0.008765301808843558
-0.07068271970460131
-0.012437883538427662
-0.001830726016516648
-0.0019016473156029086
-0.0910419537515429
-0.01945242151309607
-0.06107936747364564
-0.018483878503106815
-0.011242467640225523
-0.020290676135386054
-0.03986254428084106
-0.027855623349431872
-0.023352261252362644
-0.009066126872287718
-0.021341145711611727
-0.010332106261690729
-0.0020825921753595297
-0.06238067026601719
-0.004337101182551973
-0.08046797243045517
-0.05046477739195497
-0.06356757332873096
-0.07746746176004927
-0.07284289862847816
-0.0184408935387691
-0.023065561750750446
-0.037620280519522264
-0.006008239073048376
-0.07657783734429018
-0.00999388238133456
-0.013783181400310332
-0.00964008471306721
-0.03460969288540271
-0.10083286955182334
-0.04952527378539383
-0.07225742214209191
-0.006737871654545393
-0.06105883274061019
-0.008723317145462128
-0.0014084741856567567
-0.00044966418198546376
-0.03317916967871956
-0.001113376606108947
-0.0794164568042282
-0.07748658666705709
-0.07971114867012707
-0.03956946170262891
-0.035056231179617064
-0.019744147915487772
-0.044246450309752175
-0.09164455511602194
-0.08989637386440869
-0.08550821060737164
-0.0035057065310144823
-0.0284335564286029
-0.0037894730143652527
-0.0873837517560354
-0.004642009258674296
-0.04139679792790279
-0.005319382322690328
-0.05114946463805063
-0.0024542492835009718
-0.05504420504972997
-0.003712807012237676
-0.023708074557368952
-0.001192803671510915
-0.052689504885839566
-0.002131130186402296
-0.03253821189253791
-0.013886031875080505
-0.029997422386204883
-0.09744976188116762
-0.014188387562048101
-0.06658934671509638
-0.016089689401423305
-0.0492891881969724
-0.02693517902165398
-0.0034689120542781317
-0.00022912166126969112
-0.026400503182174434
-0.00037496578460138636
-0.038405832126520066
-0.03847907212188749
-0.07132649219962234
-0.015230735699242617
-0.0014972769833652062
-0.054549522802389276
-0.0025513575289536385
-0.011382118697389466
-0.04919028072807885
-0.010873025852139336
-0.034018472253812874
-0.00014896305555887128
-0.03431172379237504
-0.00040138393250077154
-0.03317031060507537
-0.0021401314235688627
-0.00023019107615366097
-0.0003139402514832425
-0.0008752698714287938
-0.0004047285742264195
-0.03068602621470287
-0.0011407739779515343
-0.006100409095017293
-0.0015652224642929925
-0.05667579779482338
-0.0036806883999747687
-0.010869598251586008
4.181332726692698e-06
-0.012562220967103343
5.5120251543849454e-06
-0.0817019426451667
-0.027730996555896534
-0.0158420625983288
-0.04012801148444265
-0.061350739992738636
-0.000634372010911798
-0.029777435238000353
-0.0011522157011446266
-0.030385731630893198
-0.0025019744191397747
-9.382281167180847e-05
-0.0002038689947449245
-0.008811191923893966
-0.018261954732512714
-0.02848660281597868
-0.09733233527523424
-0.0534391119927602
-0.06310303050864884
-0.007238795026720615
-0.0019812333229938806
-0.001570873681410431
-0.09321237121723462
-0.09967418840225664
-0.07711097795967045
-0.02474809260405777
-0.0018104399638950207
-0.0023319847408037825
-0.05838152967480576
-0.0007077543106719637
-0.00923737474229384
-0.00096905960051044
-0.08743995058832961
-0.08896001475068205
-0.018629655891612272
-0.000556829845940705
-0.0440031990452651
-0.0009892701773659754
-0.05586788502098239
-0.0031608768974495127
-0.001493949186155943
-0.058140657534220375
-0.004566454231753659
-0.03255435048448144
-0.0015060724222542693
-0.000561707957579575
-0.00040548726987480594
-0.08602068326085271
-0.06600134474714797
-0.08266234070971547
-0.04624188096080938
-0.08484275112318064
-0.00768151020873798
-0.08223337457622014
-0.003925647962274239
-0.012660027001460492
-0.07241153642436776
-0.04628133387208711
-0.02018128350471209
-0.030536716600861664
-0.0994623051017273
-0.01679383352582026
-0.02327342971130939
-0.009303882589896754
-2.1786042573557257e-05
-5.0452571833245695e-06
-7.603631576285509e-05
-0.028314225439389218
-0.004078200583218568
-0.02576138845040123
-9.328604556696951e-05
-0.024411623093741532
-0.05478090117781937
-0.01928624066704565
-0.06416645105323633
-0.06436703414456742
-0.01759601175462809
-0.042115512447088964
-0.01270944262060303
-0.07977924797681465
-0.056360442227958885
-0.07490990553870193
-0.0020310786382680486
-0.03635699674115206
-0.002807342216608817
-0.09413580228849733
-0.069866783671613
-0.0031776443130282664
-0.0672573344281999
-0.0020271565941709685
-0.04947775014001703
-0.043980196767165775
-0.00435624137195331
-0.002958464212858314
-0.009849013259083364
-0.026476235113173395
-0.006827931780987142
-0.09123579104305167
-0.003179668647522086
-0.06540950570727436
-0.0019034826969222117
-0.006949624876675851
-0.027690318022955893
9.741317317759102e-06
-0.023684966619091547
-6.550873088471073e-05
-0.003482878383690086
-8.590676684700426e-05
-0.02240969926235064
-0.00016688189861036845
-0.022608565367484134
-0.023129860761187254
-0.06957500332868975
-0.005165791333431125
-6.212341818219895e-05
-0.023819390846207617
-0.0001469610295779352
-0.02913748046523317
-0.002785036687086432
-4.713133274744033e-05
-0.00013989954285279694
-0.06617073775990122
-0.04484499423199292
-0.001418346787932507
-0.050042406579303464
-0.0022842348216324457
-0.014255123537323122
-0.00436060783950265
-0.07945680111081883
-0.010302424051162924
-0.06709663944039251
-0.00431528245997064
-0.056319926373340184
-0.005890757082961931
-0.009753298830940721
-0.037614540959000194
-0.008713319753422584
-0.05525121899466935
-0.09051405172634053
-0.09005166986843571
-0.023038566050065212
-0.04451294845409869
-0.015560907872659612
-0.04060385678892651
-0.01714383335538987
-1.9684851592693298e-05
-0.00015815845416079565
-0.041992265742110874
-0.003832824883088032
-0.0653078189533671
-0.0060116447827442175
-0.0835723587361316
-0.005122963797606241
-0.047406150271688006
-0.006114177079489393
-0.033695281123620434
-0.08519683627229623
-0.06467782553507136
-0.0345784438197748
-0.033282520770921926
-0.09355637521567861
-0.0005153406716276961
-0.00013104961726637953
-0.019054207350495934
-0.00029255956014796026
-0.05779212518428787
-0.08971578081679352
-0.029919051120686026
-0.05363328676311142
-0.034449287371577327
-0.005487017914391957
1.7943660509544378e-06
-0.008141070773163754
-0.01867090503954276
-0.016447130012975892
7.023375779331151e-06
9.706582400607623e-06
2.5321962556729733e-06
-0.07060395684678257
-0.005441761290848811
-0.006013728008336522
-0.028451791202456566
-0.022945864647604848
-0.005421182330710108
-0.004890945386710618
-0.10011989244056539
-0.056631862229206686
-0.015854973289953164
-0.05072883836527786
-0.013773334007101483
-0.04286997238747439
-0.09751284064735502
-0.04281800204695122
-0.0024252398238776636
-0.05796718078477696
-0.0038104122732431737
-0.09473477965982774
-0.011753663985800125
-0.07660845236235375
-0.016252890063216015
-0.09823973170223922
-0.051647571375671615
-0.006880743847471336
-0.07188499055666568
-0.010273521697856749
-0.048619530079063715
-0.015368296178630912
-0.00010821798896546929
-0.00033697705055126117
-0.08125171105945375
-0.0223032030292242
-0.002615361303061554
-0.002913775338785166
-0.07713183351739691
-0.033092201490136
-0.06586501793076505
-0.09603798401616363
-0.02521462061695156
-0.01499843045054882
-0.02685374890495869
-0.07843948201867472
-0.04335690959638636
-0.01895589807233072
-0.011058827570753198
-0.032582667078458076
-0.00776812431911331
-0.04203015690113934
-0.007660684725654544
-0.02074559265045963
-0.004571672016211757
-0.009124492119495118
-0.07634795088847936
-0.08642605131672638
-0.03408750771894339
-0.003857031941361864
-0.0043141189436063845
-0.019946258137311695
-0.00023236978440169901
-0.03811100189344711
-0.0004952607218559106
-0.04919453682407389
-0.008881400456777173
-0.00021828243587401197
-0.0004668062853126804
-0.05471397364814751
-0.0262739471451325
-0.07488733934652562
-0.0176765457229715
-0.006771910815882962
-0.016984128094446577
-0.02734396053971721
-0.0011292237167999947
-0.0002449850002910153
-0.00024483064705907524
-0.093851736774204
-0.01810887574674135
-0.03201582690143102
-6.154198227644929e-05
-0.0001989582109718128
-0.08042708373767447
-0.006851864477674636
-0.055386900672248024
-0.008222087611515595
-0.06482229637659534
-0.03161556643407681
-0.0045027775675832125
-0.07257807907456948
-0.007648035377137755
-0.08295168596695704
-0.004904826478985508
-0.015471816214329154
-0.003570896582456003
-0.09955472641663915
-0.048654645475671075
-0.09580154083375861
-0.06059735677316329
-0.0004472301740671375
-0.021843422987009784
-0.0008613590077756406
-0.02246002729392841
-0.007955595242974973
-0.053188110575281285
-0.009263097496026603
3.0792528068398755e-06
-0.023123772858870628
-3.6684990148398625e-05
-0.022920365723873907
-0.0037199106589892953
8.979835709820804e-06
-2.195009798750292e-05
-0.09264421201677343
-0.017360274756594934
-0.008918849921768848
-0.025505531782699972
-0.05904726464601175
-0.000891594341070918
-0.037413121792418055
-0.0015179576496000982
-0.02978287772093821
-0.0011695719782287223
-0.0024458940146895253
-0.06377824952605689
-0.05769131632293805
-0.010782719401854905
-0.054559160637199344
-0.011267531372169022
-0.0010118248511055549
-0.0001468196625885133
-0.0221846042802122
-0.0003184793383222322
-0.08702402820900025
-0.07510885851760846
-0.07925285515149004
-0.019775693804254393
-0.002891115770018847
-0.06653504920579383
-0.00519079795530787
-0.05926255937200042
-0.001064923658744429
-0.007655153841128922
-0.0011708865095356952
-0.03158987019460693
-6.86047979482442e-05
-0.0313229449816835
-0.0002502071952800023
-0.04953965668181692
-0.03991596377517942
-0.0004024540287789766
-0.03932162532855734
-0.0008168965815249209
-0.09906279841206918
-0.03000040150724118
-0.005931106264306017
-0.01082024743936934
-0.049226535922445885
-0.0002359962508849985
-0.029114987172252804
-0.000569832999606274
-0.010719034277273602
-0.006655599250757956
-0.023473937847411062
-0.03197768017198971
-0.014775465669179167
-0.0007055452619805474
-0.04776803654271445
-0.001458283662010276
-0.01726664931614386
-0.0007044850115252984
-3.602790272349763e-05
-7.550101992595697e-05
-0.008508228378258402
-0.016350480845368134
-0.05846614788792617
-0.018694274341895904
-0.03135570477556744
-0.08458123374207911
-0.03582306779727755
-0.04585830883502726
-0.009295658624301132
-0.014970109962947656
-0.0012610226612836768
-0.00010284895209035019
-0.020092050777878775
-0.0001923134619031338
-0.021795632406465492
-0.022113378146847988
-0.0100883114927141
-0.025712286892078322
-0.04780068723416496
-0.021879520518145682
-0.00010765631502697765
-0.00034588888337296064
-0.027864241541743662
-0.09601629798679057
-0.008703676598497401
-0.0027940192972143846
-0.07003076033192303
-0.006872428017662065
-0.07660230343948489
-0.0622711380126374
-0.030775677609904233
-0.08006366234674431
-0.016144044518427263
-0.06250408620121932
-0.016547365972941257
-0.009315197547007558
-0.07259991197211861
-0.01295089151697178
-0.06202643335979097
-0.03457327678851773
-0.06992549668846142
-0.0005286039114588798
-0.0002247600659166418
-0.023002285489239525
-0.0006079737793543859
-0.013299923733173858
-0.0048893834083115545
-0.08464375868906467
-0.012492272044433877
-0.0752586746736627
-0.05862235517305865
-0.02932580200518348
-0.015583657840366003