# vtk DataFile Version 1.0
2D Simulation C++
ASCII
DATASET UNSTRUCTURED_GRID
FIELD FieldData 1
NODES 1 2 int
2209 4256

POINTS 2209 double
0.0 0.0 0.0
0.0 1.0 0.0
1.0 1.0 0.0
1.0 0.0 0.0
0.0 0.02500000037252903 0.0
0.0 0.05000000074505806 0.0
0.0 0.07500000298023224 0.0
0.0 0.10000000149011612 0.0
0.0 0.125 0.0
0.0 0.15000000596046448 0.0
0.0 0.17499999701976776 0.0
0.0 0.20000000298023224 0.0
0.0 0.22499999403953552 0.0
0.0 0.25 0.0
0.0 0.2750000059604645 0.0
0.0 0.30000001192092896 0.0
0.0 0.32499998807907104 0.0
0.0 0.3499999940395355 0.0
0.0 0.375 0.0
0.0 0.4000000059604645 0.0
0.0 0.42500001192092896 0.0
0.0 0.44999998807907104 0.0
0.0 0.4749999940395355 0.0
0.0 0.5 0.0
0.0 0.5249999761581421 0.0
0.0 0.550000011920929 0.0
0.0 0.574999988079071 0.0
0.0 0.6000000238418579 0.0
0.0 0.625 0.0
0.0 0.6499999761581421 0.0
0.0 0.675000011920929 0.0
0.0 0.699999988079071 0.0
0.0 0.7250000238418579 0.0
0.0 0.75 0.0
0.0 0.7749999761581421 0.0
0.0 0.800000011920929 0.0
0.0 0.824999988079071 0.0
0.0 0.8500000238418579 0.0
0.0 0.875 0.0
0.0 0.8999999761581421 0.0
0.0 0.925000011920929 0.0
0.0 0.949999988079071 0.0
0.0 0.9750000238418579 0.0
0.02500000037252903 1.0 0.0
0.05000000074505806 1.0 0.0
0.07500000298023224 1.0 0.0
0.10000000149011612 1.0 0.0
0.125 1.0 0.0
0.15000000596046448 1.0 0.0
0.17499999701976776 1.0 0.0
0.20000000298023224 1.0 0.0
0.22499999403953552 1.0 0.0
0.25 1.0 0.0
0.2750000059604645 1.0 0.0
0.30000001192092896 1.0 0.0
0.32499998807907104 1.0 0.0
0.3499999940395355 1.0 0.0
0.375 1.0 0.0
0.4000000059604645 1.0 0.0
0.42500001192092896 1.0 0.0
0.44999998807907104 1.0 0.0
0.4749999940395355 1.0 0.0
0.5 1.0 0.0
0.5249999761581421 1.0 0.0
0.550000011920929 1.0 0.0
0.574999988079071 1.0 0.0
0.6000000238418579 1.0 0.0
0.625 1.0 0.0
0.6499999761581421 1.0 0.0
0.675000011920929 1.0 0.0
0.699999988079071 1.0 0.0
0.7250000238418579 1.0 0.0
0.75 1.0 0.0
0.7749999761581421 1.0 0.0
0.800000011920929 1.0 0.0
0.824999988079071 1.0 0.0
0.8500000238418579 1.0 0.0
0.875 1.0 0.0
0.8999999761581421 1.0 0.0
0.925000011920929 1.0 0.0
0.949999988079071 1.0 0.0
0.9750000238418579 1.0 0.0
1.0 0.9750000238418579 0.0
1.0 0.949999988079071 0.0
1.0 0.925000011920929 0.0
1.0 0.8999999761581421 0.0
1.0 0.875 0.0
1.0 0.8500000238418579 0.0
1.0 0.824999988079071 0.0
1.0 0.800000011920929 0.0
1.0 0.7749999761581421 0.0
1.0 0.75 0.0
1.0 0.7250000238418579 0.0
1.0 0.699999988079071 0.0
1.0 0.675000011920929 0.0
1.0 0.6499999761581421 0.0
1.0 0.625 0.0
1.0 0.6000000238418579 0.0
1.0 0.574999988079071 0.0
1.0 0.550000011920929 0.0
1.0 0.5249999761581421 0.0
1.0 0.5 0.0
1.0 0.4749999940395355 0.0
1.0 0.44999998807907104 0.0
1.0 0.42500001192092896 0.0
1.0 0.4000000059604645 0.0
1.0 0.375 0.0
1.0 0.3499999940395355 0.0
1.0 0.32499998807907104 0.0
1.0 0.30000001192092896 0.0
1.0 0.2750000059604645 0.0
1.0 0.25 0.0
1.0 0.22499999403953552 0.0
1.0 0.20000000298023224 0.0
1.0 0.17499999701976776 0.0
1.0 0.15000000596046448 0.0
1.0 0.125 0.0
1.0 0.10000000149011612 0.0
1.0 0.07500000298023224 0.0
1.0 0.05000000074505806 0.0
1.0 0.02500000037252903 0.0
0.9750000238418579 0.0 0.0
0.949999988079071 0.0 0.0
0.925000011920929 0.0 0.0
0.8999999761581421 0.0 0.0
0.875 0.0 0.0
0.8500000238418579 0.0 0.0
0.824999988079071 0.0 0.0
0.800000011920929 0.0 0.0
0.7749999761581421 0.0 0.0
0.75 0.0 0.0
0.7250000238418579 0.0 0.0
0.699999988079071 0.0 0.0
0.675000011920929 0.0 0.0
0.6499999761581421 0.0 0.0
0.625 0.0 0.0
0.6000000238418579 0.0 0.0
0.574999988079071 0.0 0.0
0.550000011920929 0.0 0.0
0.5249999761581421 0.0 0.0
0.5 0.0 0.0
0.4749999940395355 0.0 0.0
0.44999998807907104 0.0 0.0
0.42500001192092896 0.0 0.0
0.4000000059604645 0.0 0.0
0.375 0.0 0.0
0.3499999940395355 0.0 0.0
0.32499998807907104 0.0 0.0
0.30000001192092896 0.0 0.0
0.2750000059604645 0.0 0.0
0.25 0.0 0.0
0.22499999403953552 0.0 0.0
0.20000000298023224 0.0 0.0
0.17499999701976776 0.0 0.0
0.15000000596046448 0.0 0.0
0.125 0.0 0.0
0.10000000149011612 0.0 0.0
0.07500000298023224 0.0 0.0
0.05000000074505806 0.0 0.0
0.02500000037252903 0.0 0.0
0.5060392621941161 0.5030411260458642 0.0
0.7120714889456893 0.7034993430607649 0.0
0.7028791486808335 0.2953876939830826 0.0
0.2977661915407156 0.706358994219516 0.0
0.29526193834765996 0.29663684558217723 0.0
0.776479849987046 0.5061497514841952 0.0
0.5029040437660556 0.22235829049471825 0.0
0.49225605557020014 0.7782246879563018 0.0
0.2239593569217415 0.4969493983832438 0.0
0.8288615817844961 0.8217856775633406 0.0
0.8202970972580779 0.17159509350420893 0.0
0.18081944664410193 0.8295378429322947 0.0
0.1712609716512331 0.18049248428309858 0.0
0.6429108002390443 0.5662522894981366 0.0
0.564491588533466 0.36733862846262216 0.0
0.4422637640241904 0.6353560356688329 0.0
0.36294585356254205 0.42821968249442227 0.0
0.8453909219340083 0.6445860693766409 0.0
0.6445081097635258 0.15655448901479532 0.0
0.35067670811204155 0.8421416982531253 0.0
0.15586573760625666 0.3559058064259366 0.0
0.6485883596838016 0.8422583990060002 0.0
0.84226724857498 0.3587488590446366 0.0
0.15844644358716387 0.6435672701132809 0.0
0.3589473894738293 0.1578467514579528 0.0
0.6740703009627361 0.44984702927104747 0.0
0.5837858713624308 0.67691718423044 0.0
0.4476242598732189 0.3209206299264152 0.0
0.328776090772361 0.5563175304367435 0.0
0.8826224963166804 0.5323224165091773 0.0
0.5319085018310568 0.11354803639294961 0.0
0.46700422848178624 0.8862201490497946 0.0
0.11373036955064376 0.4689917256581115 0.0
0.8983776965838968 0.742396929110382 0.0
0.7425090218354204 0.1029719697257678 0.0
0.25900706357908543 0.8978293316938668 0.0
0.10391228334840179 0.2588702413127117 0.0
0.7453861846232321 0.8837945865788168 0.0
0.11927319912266415 0.7445444715425568 0.0
0.881501243444899 0.2570839842393136 0.0
0.25647442231102374 0.11923918693639166 0.0
0.7416290586912069 0.6050243324881643 0.0
0.6093071269895041 0.2519421372122149 0.0
0.3958138946774151 0.7485904987249828 0.0
0.25468673982499523 0.395234706283927 0.0
0.524119302145132 0.5926500357388267 0.0
0.8991548338163284 0.8862199293589101 0.0
0.885063438977447 0.10124230356645875 0.0
0.11614705342446557 0.9000581266885387 0.0
0.10091244167605208 0.11617124254136821 0.0
0.7617482065143502 0.3932343852493948 0.0
0.2394066342009717 0.6107211392054619 0.0
0.3915451292723581 0.23620101177103014 0.0
0.8977992319693646 0.43800049581385625 0.0
0.4371374237937489 0.10315798301551492 0.0
0.5651793770421913 0.8952402331613095 0.0
0.10323166510758731 0.5645045877172691 0.0
0.7884799987971559 0.7435725249075439 0.0
0.7425077366868005 0.21187223246997736 0.0
0.2577618237707198 0.7895078818853422 0.0
0.21231385404353548 0.2576623461975432 0.0
0.7212886067098765 0.8014087309873869 0.0
0.7942226032772677 0.2842424535933148 0.0
0.20635804941485128 0.7175981444215482 0.0
0.28786158662142963 0.2016456998070378 0.0
0.5943728610520528 0.4953754004882257 0.0
0.49126967929829785 0.41255224702772963 0.0
0.4255003040884046 0.5468827114053324 0.0
0.6327710086471287 0.7590000717061857 0.0
0.6522845993472256 0.3551891058491697 0.0
0.496712061951088 0.693114356661784 0.0
0.354453166701357 0.6430138363871453 0.0
0.350312032212704 0.3479950945145142 0.0
0.9164089260735377 0.8161344500070031 0.0
0.8155569423895391 0.08427038339379335 0.0
0.18550227514447262 0.9172217648236539 0.0
0.0841497255821377 0.18549460036133877 0.0
0.8283622417804378 0.9110784620080732 0.0
0.091562397223365 0.828763338593189 0.0
0.9098020449808043 0.17254033720684409 0.0
0.1725788604459724 0.09175760729289355 0.0
0.6985809264143982 0.5188684245721601 0.0
0.6490374498330237 0.6491367352121665 0.0
0.5130669113629666 0.3042828385487446 0.0
0.3008781109319617 0.4842878835938396 0.0
0.9183538960771426 0.6081891292438691 0.0
0.6138576370227115 0.08604929550666288 0.0
0.3959679951805647 0.9204601992232564 0.0
0.08366929647377615 0.38749699195245224 0.0
0.6647325920717629 0.9198236014487465 0.0
0.08181652750499877 0.6630145894005555 0.0
0.9193550710809133 0.3390763312669712 0.0
0.3384125115308683 0.08185985961475403 0.0
0.8218409759414288 0.43781768983889807 0.0
0.5671088868464235 0.8170390328245277 0.0
0.4359767209898308 0.1776287397245458 0.0
0.17915595406037602 0.565403590415074 0.0
0.43421144646753923 0.45846572242066075 0.0
0.8187186799847854 0.5711025489442417 0.0
0.5689864458772272 0.18226700875970878 0.0
0.4308320797440136 0.8191936117584062 0.0
0.1817229457666306 0.4319695232087099 0.0
0.7713841840844115 0.6685413506829921 0.0
0.6687803884332019 0.22613984959408312 0.0
0.332033203019034 0.7760529680191008 0.0
0.22658247691798603 0.3320272016570521 0.0
0.9292425958372977 0.6847391220890297 0.0
0.6856174889005388 0.07246034760274175 0.0
0.3131384665224403 0.926818608488766 0.0
0.07446790359048241 0.312374577140871 0.0
0.561761801706461 0.7407871161029088 0.0
0.6027012458897933 0.42031151107291337 0.0
0.3756924031959921 0.49881670535190986 0.0
0.7342378482155095 0.45965561188689386 0.0
0.4561096321786935 0.26276502706523885 0.0
0.2677785527484338 0.5426491069286843 0.0
0.5877240729510514 0.6146356791566666 0.0
0.41860477412199293 0.3872811205140841 0.0
0.5725932515687214 0.5426780131660524 0.0
0.5490188598550662 0.448956789517395 0.0
0.9338892330514099 0.49733513733009516 0.0
0.49824953432415764 0.06672152840325982 0.0
0.502219183886397 0.9321939039905112 0.0
0.06684204730660763 0.5029331758900891 0.0
0.845343812801655 0.4994089913606866 0.0
0.49785288165594194 0.1541983570242034 0.0
0.4990925693419258 0.8423752761358512 0.0
0.15488146928785584 0.5032453573763305 0.0
0.8449470526791774 0.6987789885953276 0.0
0.6983523961838647 0.15649115101546485 0.0
0.30154585873329276 0.8442373096690364 0.0
0.1566491586601159 0.3018987243583782 0.0
0.7717494723656674 0.8386323079031103 0.0
0.835493702901987 0.229544376981788 0.0
0.16543148389806075 0.7724562610285058 0.0
0.2287504686731572 0.1651064952966097 0.0
0.7620248196611117 0.3284260792633814 0.0
0.23853870536796748 0.6748049958429327 0.0
0.32669628875861606 0.2379248231110196 0.0
0.6396348880291529 0.3021438475184949 0.0
[...]
POINT_DATA 2209
SCALARS Psi double
LOOKUP_TABLE default
0.0
0.0
0.0
0.0
0.0
0.0
0.0
0.0
0.0
0.0
0.0
0.0
0.0
0.0
0.0
0.0
0.0
0.0
0.0
0.0
0.0
0.0
0.0
0.0
0.0
0.0
0.0
0.0
0.0
0.0
0.0
0.0
0.0
0.0
0.0
0.0
0.0
0.0
0.0
0.0
0.0
0.0
0.0
0.0
0.0
0.0
0.0
0.0
0.0
0.0
0.0
0.0
0.0
0.0
0.0
0.0
0.0
0.0
0.0
0.0
0.0
0.0
0.0
0.0
0.0
0.0
0.0
0.0
0.0
0.0
0.0
0.0
0.0
0.0
0.0
0.0
0.0
0.0
0.0
0.0
0.0
0.0
0.0
0.0
0.0
0.0
0.0
0.0
0.0
0.0
0.0
0.0
0.0
0.0
0.0
0.0
0.0
0.0
0.0
0.0
0.0
0.0
0.0
0.0
0.0
0.0
0.0
0.0
0.0
0.0
0.0
0.0
0.0
0.0
0.0
0.0
0.0
0.0
0.0
0.0
0.0
0.0
0.0
0.0
0.0
0.0
0.0
0.0
0.0
0.0
0.0
0.0
0.0
0.0
0.0
0.0
0.0
0.0
0.0
0.0
0.0
0.0
0.0
0.0
0.0
0.0
0.0
0.0
0.0
0.0
0.0
0.0
0.0
0.0
0.0
0.0
0.0
0.0
0.0
0.0
-0.05552665393637749
-0.08797271969501538
-0.01282578183552935
-0.054833961951231004
-0.012574793276735366
-0.0329008516685979
-0.01113173876632712
-0.09023578417280262
-0.02224044147979682
-0.06780818137852422
-0.001475135371072438
-0.03766838626262136
-0.0020803926805495394
-0.0683139156827411
-0.029511014388452727
-0.07335332680113309
-0.03179155233326969
-0.03859153883313655
-0.0044167952093639
-0.0681820469939077
-0.006768172264388615
-0.09007015991637535
-0.006821962130692576
-0.020348144675130273
-0.004765968866580745
-0.03824056016090906
-0.09207489449288606
-0.02185395203211466
-0.0447993409654356
-0.012933826081113417
-0.003080600143261699
-0.07124260788016601
-0.006749619804173119
-0.03092629485953524
-0.0011159724768175397
-0.05054990778478011
-0.0017797371502791752
-0.07316890479627959
-0.017057438673874874
-0.0015415698710178139
-0.0017990082427016161
-0.06208593071763812
-0.012593840878774989
-0.07638831601388439
-0.017681059960511305
-0.07485756510992098
-0.0412328758672779
-0.00011470084917500527
-0.02768374704831554
-0.0002897530706219995
-0.01831247731419824
-0.03434039584327451
-0.011064649257399832
-0.005171374359287154
-0.0024895946470723193
-0.07238743404361009
-0.007915258585423334
-0.07573458268563826
-0.004921532857011162
-0.052103784117940324
-0.006018862087899299
-0.09148408550443254
-0.006307887453658685
-0.035490982481990306
-0.005857287008450306
-0.05449330558717042
-0.037312589937817574
-0.05706367252344781
-0.09859288539629407
-0.023513248199526837
-0.08742521766933582
-0.05998241772859967
-0.020769080155481883
-0.029345894951924068
-0.00031853174093595776
-0.039657546595180754
-0.0005867575962985617
-0.05468726888324112
-0.015318268265248383
-0.000266018372022918
-0.000519878917267873
-0.05019552989950089
-0.08619191546305312
-0.020471885826141754
-0.03183047584557059
-0.010623745521408053
-0.0015083008431873652
-0.05486738893164041
-0.0026394975525181655
-0.060827063300385176
-0.006982697489568849
-0.0014289519945969715
-0.0012605481941567274
-0.015051609560817214
-0.09305932416848357
-0.006968262037666854
-0.019848459424392933
-0.042543897013378365
-0.03431399674645686
-0.007202602312809364
-0.080512973545182
-0.012580036794374258
-0.06838841108904922
-0.008432825205452929
-0.06605872861175208
-0.010802677385063998
-0.012878782555653966
-0.0008035344623069286
-0.0477429922382728
-0.001374901994978883
-0.09650215325347881
-0.03781172373828219
-0.043333611935224524
-0.03217909030264721
-0.014998470168813128
-0.03313122212820704
-0.08148724987405925
-0.030062210452033875
-0.06573592482235793
-0.04513324189602189
-0.003363568913633084
-0.0011465042870773359
-0.05237988982890154
-0.0029785231335176868
-0.017421676961401913
-0.005556889807346012
-0.08434686544715081
-0.01288034729226857
-0.048011290024632294
-0.0034671731381813392
-0.06095776588657657
-0.00497931204353399
-0.08045439814881918
-0.0023888653457321456
-0.029757701060262064
-0.002820653216832811
-0.011601156575752506
-0.03943241466590438
-0.00933259586213276
-0.017038744648962167
-0.06778522249725738
-0.01866222056852829
-0.05645372545138799
-0.0017366088655806527
-0.004821350663107632
-0.001167863306279532
-0.059467264332378506
-0.08127373959742071
-0.017336238759259937
-1.2767434396831992e-05
-0.024602253856490907
1.131096603244422e-05
-0.06610324082221895
-0.004149689087516038
-0.0008742751134360526
-0.04764680736331398
-0.0019125463601245014
-0.015636255258166046
-0.0003341614046363887
-0.038915454353179516
-0.000572118104488523
-0.04706520931876031
-0.006517748326539008
-0.0002895253996626516
-0.00045623909914804784
-0.05830654992973294
-0.002024879611767695
-0.0488141275832133
-0.0028743554429058495
-0.08659805312678406
-0.0042931663630282205
-0.02199203209977386
-0.003869481482082435
-0.07901964414023924
-0.055612081027943794
-0.02886184684017482
-0.047215261054107
-0.020050332026756896
-0.09510511916414217
-0.02592700349123531
-0.07033499972263353
-0.01354882631433666
-0.022251401105576895
-0.020102737066554688
-4.287014585346082e-05
-0.030096386876621625
-0.00013057032209732976
-0.04073362961856116
-0.010803906625206711
-4.9175675625712206e-05
-0.00016265145386862358
-0.08579114502841469
-0.026625839104654637
-0.017842017193448842
-0.04618656212041537
-0.08450085116005938
-0.023766898694146082
-0.004031743430478395
-0.0725279815894862
-0.007194835675802625
-0.08671600353533367
-0.00764226162770484
-0.04908253237100417
-0.008063454902964992
-0.09586213420377884
-0.051958394367054204
-0.008523915651019091
-0.0742661650852044
-0.012473105141853482
-0.04912809085640679
-0.005299486241843493
-0.000486638382493683
-0.0006062203009324363
-0.049861241786013706
-0.0004487160781715075
-0.03492794361799614
-0.000807444473787881
-0.014422373332910772
-0.008111840770828932
-0.02603450422962551
-0.07964219093779365
-0.07668745475640062
-0.0030135393250961266
-0.042322557008863
-0.0037468556215836065
-0.018102111911848115
-0.04840134923477281
-0.014342314269903012
-0.004927724629370448
-0.07965058356668175
-0.003071240400276787
-0.012135674071052725
-0.09646222393316707
-0.0708639909277083
-0.09482409486959123
-0.05196813612176743
-0.06793100016014884
-0.008329667249196935
-0.030449604191997545
-0.006435317864071417
-0.03562560441246708
-0.022287188892359262
-0.024579830885485043
-0.0013073196384142706
-0.0006986577435027589
-0.04457359156943538
-0.0023912540137012318
-0.06998446380321655
-0.025275725760314217
-0.001062030939328664
-0.0015131567205267315
-0.008601796673505099
-0.00303755778989759
-0.07467812707504251
-0.0079481901487226
-0.022770772266868917
-0.011061134793581139
-0.028715582075990776
-0.0444995680875085
-0.05796247050515826
-0.03023989304202346
-0.0024153208033214765
-0.06118130096155141
-0.003774683441271635
-0.00607545594242723
-0.00021651958229183072
-0.02983129465754583
-0.0003174110727338441
-0.003346041081998995
-0.0003215879767445389
-0.035106809723151194
-0.0007006305073223709
-0.02919060480931849
-0.09274640803682846
-0.033271079937592436
-0.04540739264741627
-0.05121656125520489
-0.09725256412522422
-0.04841896440457111
-0.0009983656696169398
-0.044300595741053606
-0.0015550077578920117
-0.08056239375644228
-0.00905678948221489
-0.05793158486570607
-0.010196339996430156
-0.05366200206918195
-0.0002991068002129239
-0.025286662260804168
-0.000585343070668891
-0.06169703616955426
-0.0231860947093823
-0.09184504957867913
-0.06606000509298791
-0.03484544876624061
-0.03949753181436878
-0.09411138864018817
-0.03009531213339412
-0.03629323112672427
-0.06307765371327008
-0.03924045957627641
-0.041121244501965894
-0.015391167760714487
-0.019138397832155415
-0.02893595145170716
-0.07939746326389176
-0.0883448204835559
-0.010026362742530328
-8.148549240691634e-05
-0.02978813352956676
-0.000169398649018821
-0.03833476416676875
-0.0053597953217602665
-8.96540904584255e-05
-0.00020064427666310926
-0.03893153044745609
-0.04878636657851653
-0.05195814408923941
-0.01100649894524783
-0.01705415453984065
-0.022552828959688968
-0.005625912024400721
-0.0852061747142458
-0.011392030449029557
-0.07965242728510248
-0.014612759716243876
-0.0034895602453955945
-0.0028157854787350047
-0.03587319051845701
-0.001923545150044068
-0.00039297075087747036
-0.0003590060816268154
-0.002882908230699691
-0.000524153464472794
-0.034015537294677364
-0.0010119359968671264
-0.011618665711440376
-0.004804972086758351
-0.0854767365766688
-0.013317799992003268
-0.026931467082356834
-0.009381490818982026
-0.09009096016165438
-0.005151745411065015
-0.017696011602938447
-0.012292844487263303
-0.07100567474951701
-0.015494056376982904
-0.0647825156105323
-0.015915135839459072
-0.0007512365984418786
-0.0010767854596549031
-0.08147953191978227
-0.03171579820939562
-0.0006496473742264965
-0.04495598819919458
-0.0010640415990401614
-0.025091139924450806
-0.002910868954189335
-0.06593488346486534
-0.0047965359289957816
-0.01440908613072942
3.7326854959281527e-06
-0.0228574491996677
-2.5801748057975094e-05
-0.006943894758002902
-0.02642138508227429
-1.9574534052519776e-05
7.19499001035637e-06
-0.07999814649053054
-0.05588767254385253
-0.005686794607260842
-0.06555539057147687
-0.007876169545261772
-0.07004566267979652
-0.011783126233879008
-0.001751048185879936
-0.001735131606991536
-0.08796361505239454
-0.017816117536201326
-0.057629403254802924
-0.016605785264580942
-0.01018707193652414
-0.018354960219572457
-0.03765658203111105
-0.025218359564119847
-0.021803181830311973
-0.008253708214979822
-0.019597426308195644
-0.009908459003618244
-0.0019367499306614507
-0.0618802699850869
-0.003909153512643207
-0.0789802894497067
-0.04607774204906169
-0.060167986732738814
-0.07295836924762741
-0.07010012517290766
-0.01678914689539081
-0.020764765289561032
-0.03595032480658407
-0.005528789753273515
-0.07497245368019535
-0.008958720395785618
-0.012793148369563108
-0.008645040898848466
-0.03246036857692127
-0.09829182678725282
-0.045528325012090115
-0.07052605338202435
-0.0062257573697918666
-0.05932738377099784
-0.007850607909860913
-0.0013871505984602382
-0.0004010877566394819
-0.03368275694554946
-0.0009834735668992718
-0.07462283713359588
-0.07257121146246276
-0.07613240734194482
-0.03619182181696251
-0.032350281090027314
-0.017754747016093406
-0.04078186861195747
-0.08735271006839954
-0.08632291775610698
-0.08470630605123328
-0.003287952546021121
-0.027404734020310705
-0.003441297660045104
-0.08615394316453567
-0.004346383236746579
-0.04014371659324669
-0.004841941989056014
-0.05029119342201856
-0.002329318616219776
-0.054190124224690245
-0.0033480261285016846
-0.023235528922554677
-0.0011412666809242267
-0.05221515666911476
-0.0018995350448394565
-0.030343124019649816
-0.01254235358889732
-0.02748070295741904
-0.09387207420184313
-0.012966632246087345
-0.06368658029600212
-0.014455048177428683
-0.04567234350509454
-0.024270389202286656
-0.003577841663124095
-0.00021034090883685286
-0.02683101017407636
-0.00031329759901176053
-0.034686367432155155
-0.03503463750633135
-0.06702292081330606
-0.014830361097192428
-0.0013978028401752706
-0.054072509481965916
-0.002285521729758077
-0.010456996504298497
-0.046890400704200356
-0.009800196117102904
-0.033969360342953385
-0.0001675630642792601
-0.0340706184660079
-0.0003663474691997219
-0.0334130252880886
-0.001974759685186038
-0.00024262322000386191
-0.00027235238339246427
-0.0008828173857883132
-0.00035103122965081585
-0.03145009878017336
-0.0009847821788414356
-0.005844730377306054
-0.001427912156488495
-0.056500477234791624
-0.003334267114985605
-0.01068936767501447
3.3948701272761552e-06
-0.013008810885386714
4.4297194814529364e-06
-0.07905672836300408
-0.025628891107687634
-0.01425666335487919
-0.03718877276506594
-0.060970584678851796
-0.0006426573572563174
-0.02935791157579324
-0.0010497505673399473
-0.030814479493807702
-0.0023373894108614426
-0.00010508169110534004
-0.00017911305401496723
-0.00800887699692712
-0.016562364047928043
-0.0267580547030357
-0.09476699117764097
-0.04901053837566458
-0.062472071509405945
-0.006685827543626318
-0.0018935804557959387
-0.0014398386657086257
-0.09089653261223896
-0.09770139762375238
-0.07660235924985488
-0.023984551485727684
-0.0017411442989639756
-0.002129601114694128
-0.0580363186518628
-0.0006999194632682246
-0.008908214486388738
-0.0008834687708225138
-0.08492652774758265
-0.08455560997777489
-0.01852022014440806
-0.0005397767744376069
-0.04348545631836522
-0.0008955341805124477
-0.05145646233320921
-0.003043560842831396
-0.0013547826301762926
-0.057695229854700075
-0.0041684851045656855
-0.03341321177875087
-0.001334148049518681
-0.0005561243020989572
-0.0003464591106902819
-0.08131598544327903
-0.061179303180110986
-0.07900960796318779
-0.04223775840408837
-0.08155166139686457
-0.007118826327369014
-0.08126906221023378
-0.003574393383477844
-0.011692971836091153
-0.06920694556388385
-0.042306339951716336
-0.01825462607927862
-0.027601891044153167
-0.09704932382160233
-0.015285552631365315
-0.021014338599453595
-0.009737952230371832
-2.9564251787152248e-05
-1.3938786372366471e-05
-6.717043585666308e-05
-0.02857803879201851
-0.0038711712710905464
-0.02594169067245848
-8.193610790305467e-05
-0.02234871846205702
-0.05140538183438005
-0.017314009448161177
-0.059188861958634986
-0.059832154682980324
-0.016232288551265385
-0.03950278997419041
-0.011429523765581057
-0.0757366415836825
-0.051853124214912796
-0.0743489308374131
-0.0019488325657956692
-0.03566089829775205
-0.002559545813799687
-0.09198072736485595
-0.06883189263839942
-0.002989974841040605
-0.0666016664879675
-0.0019468519138448614
-0.048528451502751105
-0.043258080916925484
-0.003932352441786486
-0.002674625753748225
-0.009201353321131603
-0.024885165495358907
-0.006194464592329341
-0.08824181876903316
-0.003002652006375899
-0.06490140141365598
-0.0017454458367628484
-0.006382469061610219
-0.02769930731417176
-1.3708879119760235e-06
-0.02349056600751373
-6.0240030596499156e-05
-0.0036389873537428044
-8.276282604162916e-05
-0.022671992157251592
-0.00014162005199256218
-0.020590209133012405
-0.020841014475280428
-0.06583245403108919
-0.005342459513242085
-6.382422346640353e-05
-0.02419858159769971
-0.00012584790216578801
-0.029086393292566855
-0.0026224524709938307
-5.727609755180702e-05
-0.00012532002622863593
-0.062125273309522125
-0.04437432347107289
-0.0013573902068565694
-0.04949040559615335
-0.0020641097946013
-0.01334261064206825
-0.00398906426886704
-0.07846202101687952
-0.00926199386093958
-0.06594595438389156
-0.00406329336257228
-0.05513118604617702
-0.005308249098111453
-0.009010759956975386
-0.03568678614021865
-0.00784694370513847
-0.05189940486562243
-0.08948195497915278
-0.08894538966771262
-0.021232211867000837
-0.04145899657729505
-0.014023256200600237
-0.04044811748046229
-0.01711354914285309
-3.559051714725712e-05
-0.00014887322862135784
-0.04064038300457894
-0.0035946208268722753
-0.06419114159991182
-0.005382961516045682
-0.08227218950450146
-0.004798489674256752
-0.0460259079048631
-0.005537710419061018
-0.030425275449443512
-0.08045585574273112
-0.05981198337041809
-0.03131399815233266
-0.03010713533526055
-0.09186827562046104
-0.0005306002405688994
-0.00010948005984828548
-0.019746178756105636
-0.000245479585368445
-0.05349597781471771
-0.0880906667513754
-0.02696584349547149
-0.04905988866096577
-0.03110110935371816
-0.005224877665398138
1.3008523444423871e-06
-0.00845174537810371
-0.019005588047566455
-0.016449778305489174
5.444165762165571e-06
7.3400286878433174e-06
2.0239289243993617e-06
-0.0660140638066833
-0.005098245424457945
-0.005576353115241063
-0.02711874864003611
-0.021671256589389624
-0.004906283565706183
-0.004455672088889409
-0.09713133771031258
-0.0524860283686777
-0.014595152151526875
-0.04799412358432903
-0.012397670620720586
-0.03945706437792265
-0.0944929225587242
-0.042050764138913344
-0.002300706526339716
-0.05712374787385917
-0.0034177458584152953
-0.09063216907135414
-0.010741219044114087
-0.0739460061883182
-0.014613252492706525
-0.09457313213074997
-0.04977744524092126
-0.006334014882650375
-0.07018850577648598
-0.00922296470413558
-0.04836054169040377
-0.015163851984899111
-0.00012783290401264171
-0.00031154373331380417
-0.08056918267946439
-0.021432878524969796
-0.0024757193684164956
-0.002648612730517891
-0.07316145706851804
-0.030417902395878934
-0.06157298984155418
-0.0944283779910553
-0.02283539227178592
-0.013555223287387501
-0.024374566529417847
-0.07369087807304588
-0.040773993928956226
-0.017553080012761284
-0.009936155149962433
-0.030342096821585424
-0.0071576905825846745
-0.040259445293849234
-0.006924677663441127
-0.019712880378057795
-0.004178749141035357
-0.008248307261398715
-0.07308868813956972
-0.08550009863793885
-0.03310405855339245
-0.0036424568711509986
-0.003908956876068635
-0.020146851186268785
-0.0002403890328300222
-0.03787410192634729
-0.00044061468062478064
-0.048877533962246374
-0.008789748090327279
-0.00023065573266686657
-0.00042765998842050695
-0.05109816581667757
-0.02367437896856857
-0.06991657986240714
-0.016533519294673112
-0.006170543357645206
-0.015506499652566851
-0.028081823286860423
-0.0010219403702345063
-0.00025366827443086727
-0.00021094517147186007
-0.09036259840297509
-0.01821026539869687
-0.03197542028087189
-7.386568260972016e-05
-0.00018083120404694053
-0.07878895319034598
-0.006359048852110258
-0.053637045492151286
-0.00743178014022235
-0.059965957796909594
-0.03024438972201938
-0.004166244997825544
-0.07143519208737972
-0.006848032184296075
-0.08205332858883342
-0.004573404115659184
-0.014523758937940761
-0.003262215931817716
-0.09720987769746263
-0.04456568815685684
-0.0943403841819197
-0.060141092330274634
-0.0004635437423323269
-0.021579010556250926
-0.0007958034629532368
-0.0202076933024861
-0.007574350653935818
-0.053134540430833425
-0.009601722412233686
-2.7500372483963106e-06
-0.023419707987626874
-3.239706492363688e-05
-0.02307760479724644
-0.0035726756997331577
3.841841915445591e-06
-1.9541042038611925e-05
-0.08837986408253065
-0.016133675483833765
-0.008080880391283614
-0.023534858868764243
-0.058821234858555047
-0.0008888695250261284
-0.03699346134554998
-0.001383660298061763
-0.027324267116482268
-0.001086427974691878
-0.002189525125244797
-0.06122272247288954
-0.05473120060672874
-0.00993428223223759
-0.05219889283242534
-0.01015796903536545
-0.0010683166514186889
-0.00013127606793750834
-0.023081121286979634
-0.00026117687199706246
-0.08422582084318364
-0.07405930346186027
-0.07776922300935951
-0.018809266513563273
-0.0026542056583537922
-0.06588287095594039
-0.004664521134845049
-0.058975960039012926
-0.0010334628910649475
-0.007206369293564453
-0.001062831242629648
-0.03192271262081722
-8.773905608222981e-05
-0.031141232393481832
-0.00022979725680504938
-0.04584087857385194
-0.039797037836722206
-0.00041454407374953765
-0.03899113046499231
-0.000738607445317495
-0.09713574936321047
-0.028478535168425252
-0.005438810233046876
-0.009690575209154655
-0.0490334731808484
-0.0002537902061794653
-0.02885907532061856
-0.0005237228638310628
-0.00994443587068843
-0.006018767918882429
-0.021946094297165278
-0.030197693170299456
-0.014406065909289343
-0.0006746872086746975
-0.04736106448736972
-0.0013049586973518127
-0.01798264884723549
-0.0006376676676489865
-4.1277904082203664e-05
-6.450406141848512e-05
-0.007738287696636417
-0.014814664323464578
-0.05388335053296441
-0.01687980062827942
-0.02843264392103406
-0.08066093945142526
-0.03244255604481533
-0.04387547483780626
-0.008514194231144835
-0.013512544160364794
-0.0013328333698402113
-9.254042348792632e-05
-0.020480954956887103
-0.00015937519199026365
-0.019578360897631274
-0.020561065715990322
-0.009161697810105965
-0.02370525753463689
-0.04757516671605033
-0.021725908272591517
-0.00012805716483447847
-0.00032139330743019627
-0.02533736698897696
-0.09418979375321972
-0.00821536972034322
-0.0025572085693601086
-0.06924624078232715
-0.006177373010183798
-0.07169095898656568
-0.06006267314258625
-0.027723664345562095
-0.07803097540902851
-0.014725690179519498
-0.059483803945872486
-0.014870767405073407
-0.008522188468578305
-0.07043308190621904
-0.011643477381428102
-0.05746287037279192
-0.031368997872371567
-0.06579009404122238
-0.000551891274007251
-0.00019501237300651733
-0.023785312022165155
-0.0005104526196796452
-0.012493696648150702
-0.004441049987913193
-0.08329617058836845
-0.011343950378478415
-0.07163572766087707
-0.05390585644606104
-0.02649682724038004