# vtk DataFile Version 1.0
2D Simulation C++
ASCII
DATASET UNSTRUCTURED_GRID
FIELD FieldData 1
NODES 1 2 int
2209 4256

POINTS 2209 double
0.0 0.0 0.0
0.0 1.0 0.0
1.0 1.0 0.0
1.0 0.0 0.0
0.0 0.02500000037252903 0.0
0.0 0.05000000074505806 0.0
0.0 0.07500000298023224 0.0
0.0 0.10000000149011612 0.0
0.0 0.125 0.0
0.0 0.15000000596046448 0.0
0.0 0.17499999701976776 0.0
0.0 0.20000000298023224 0.0
0.0 0.22499999403953552 0.0
0.0 0.25 0.0
0.0 0.2750000059604645 0.0
0.0 0.30000001192092896 0.0
0.0 0.32499998807907104 0.0
0.0 0.3499999940395355 0.0
0.0 0.375 0.0
0.0 0.4000000059604645 0.0
0.0 0.42500001192092896 0.0
0.0 0.44999998807907104 0.0
0.0 0.4749999940395355 0.0
0.0 0.5 0.0
0.0 0.5249999761581421 0.0
0.0 0.550000011920929 0.0
0.0 0.574999988079071 0.0
0.0 0.6000000238418579 0.0
0.0 0.625 0.0
0.0 0.6499999761581421 0.0
0.0 0.675000011920929 0.0
0.0 0.699999988079071 0.0
0.0 0.7250000238418579 0.0
0.0 0.75 0.0
0.0 0.7749999761581421 0.0
0.0 0.800000011920929 0.0
0.0 0.824999988079071 0.0
0.0 0.8500000238418579 0.0
0.0 0.875 0.0
0.0 0.8999999761581421 0.0
0.0 0.925000011920929 0.0
0.0 0.949999988079071 0.0
0.0 0.9750000238418579 0.0
0.02500000037252903 1.0 0.0
0.05000000074505806 1.0 0.0
0.07500000298023224 1.0 0.0
0.10000000149011612 1.0 0.0
0.125 1.0 0.0
0.15000000596046448 1.0 0.0
0.17499999701976776 1.0 0.0
0.20000000298023224 1.0 0.0
0.22499999403953552 1.0 0.0
0.25 1.0 0.0
0.2750000059604645 1.0 0.0
0.30000001192092896 1.0 0.0
0.32499998807907104 1.0 0.0
0.3499999940395355 1.0 0.0
0.375 1.0 0.0
0.4000000059604645 1.0 0.0
0.42500001192092896 1.0 0.0
0.44999998807907104 1.0 0.0
0.4749999940395355 1.0 0.0
0.5 1.0 0.0
0.5249999761581421 1.0 0.0
0.550000011920929 1.0 0.0
0.574999988079071 1.0 0.0
0.6000000238418579 1.0 0.0
0.625 1.0 0.0
0.6499999761581421 1.0 0.0
0.675000011920929 1.0 0.0
0.699999988079071 1.0 0.0
0.7250000238418579 1.0 0.0
0.75 1.0 0.0
0.7749999761581421 1.0 0.0
0.800000011920929 1.0 0.0
0.824999988079071 1.0 0.0
0.8500000238418579 1.0 0.0
0.875 1.0 0.0
0.8999999761581421 1.0 0.0
0.925000011920929 1.0 0.0
0.949999988079071 1.0 0.0
0.9750000238418579 1.0 0.0
1.0 0.9750000238418579 0.0
1.0 0.949999988079071 0.0
1.0 0.925000011920929 0.0
1.0 0.8999999761581421 0.0
1.0 0.875 0.0
1.0 0.8500000238418579 0.0
1.0 0.824999988079071 0.0
1.0 0.800000011920929 0.0
1.0 0.7749999761581421 0.0
1.0 0.75 0.0
1.0 0.7250000238418579 0.0
1.0 0.699999988079071 0.0
1.0 0.675000011920929 0.0
1.0 0.6499999761581421 0.0
1.0 0.625 0.0
1.0 0.6000000238418579 0.0
1.0 0.574999988079071 0.0
1.0 0.550000011920929 0.0
1.0 0.5249999761581421 0.0
1.0 0.5 0.0
1.0 0.4749999940395355 0.0
1.0 0.44999998807907104 0.0
1.0 0.42500001192092896 0.0
1.0 0.4000000059604645 0.0
1.0 0.375 0.0
1.0 0.3499999940395355 0.0
1.0 0.32499998807907104 0.0
1.0 0.30000001192092896 0.0
1.0 0.2750000059604645 0.0
1.0 0.25 0.0
1.0 0.22499999403953552 0.0
1.0 0.20000000298023224 0.0
1.0 0.17499999701976776 0.0
1.0 0.15000000596046448 0.0
1.0 0.125 0.0
1.0 0.10000000149011612 0.0
1.0 0.07500000298023224 0.0
1.0 0.05000000074505806 0.0
1.0 0.02500000037252903 0.0
0.9750000238418579 0.0 0.0
0.949999988079071 0.0 0.0
0.925000011920929 0.0 0.0
0.8999999761581421 0.0 0.0
0.875 0.0 0.0
0.8500000238418579 0.0 0.0
0.824999988079071 0.0 0.0
0.800000011920929 0.0 0.0
0.7749999761581421 0.0 0.0
0.75 0.0 0.0
0.7250000238418579 0.0 0.0
0.699999988079071 0.0 0.0
0.675000011920929 0.0 0.0
0.6499999761581421 0.0 0.0
0.625 0.0 0.0
0.6000000238418579 0.0 0.0
0.574999988079071 0.0 0.0
0.550000011920929 0.0 0.0
0.5249999761581421 0.0 0.0
0.5 0.0 0.0
0.4749999940395355 0.0 0.0
0.44999998807907104 0.0 0.0
0.42500001192092896 0.0 0.0
0.4000000059604645 0.0 0.0
0.375 0.0 0.0
0.3499999940395355 0.0 0.0
0.32499998807907104 0.0 0.0
0.30000001192092896 0.0 0.0
0.2750000059604645 0.0 0.0
0.25 0.0 0.0
0.22499999403953552 0.0 0.0
0.20000000298023224 0.0 0.0
0.17499999701976776 0.0 0.0
0.15000000596046448 0.0 0.0
0.125 0.0 0.0
0.10000000149011612 0.0 0.0
0.07500000298023224 0.0 0.0
0.05000000074505806 0.0 0.0
0.02500000037252903 0.0 0.0
0.5052793616441607 0.5021295319741075 0.0
0.7106591081674777 0.7017409521592467 0.0
0.7018357802760733 0.2941120518372847 0.0
0.2965988048470822 0.7057932506144321 0.0
0.29407305054018085 0.29531647261286587 0.0
0.7751503323375223 0.5046895368506604 0.0
0.5016060973652609 0.22124501198162547 0.0
0.491231133961802 0.7770392912957192 0.0
0.22207140592762167 0.49584990593327494 0.0
0.8281908831283841 0.8200957487482552 0.0
0.8192689869228877 0.17043539125349746 0.0
0.18006660264981383 0.8291009486791557 0.0
0.17054162089270092 0.1794740830904419 0.0
0.6423038484844448 0.5656627983989679 0.0
0.563030126290257 0.36635241050547046 0.0
0.44170078553326453 0.6344422460241033 0.0
0.362227801709668 0.42750310230404226 0.0
0.8442465069248538 0.6432024365886085 0.0
0.643491842614882 0.1554955703782149 0.0
0.3495254735051043 0.8416081637197833 0.0
0.1550892069761008 0.3542748873765058 0.0
0.6476922760383111 0.8410042208654774 0.0
0.8411229009320447 0.35804121376510134 0.0
0.15771164209193048 0.6426443736335776 0.0
0.35767542239775474 0.15661413885746783 0.0
0.6734690451117737 0.4485260850058221 0.0
0.582810862743244 0.6755451827160267 0.0
0.4464664434824563 0.31930961072240777 0.0
0.32777154594093616 0.555291512072114 0.0
0.8816724745335016 0.5308416793323607 0.0
0.5310202037195664 0.1126155149692563 0.0
0.46621879565950214 0.8850359050273792 0.0
0.1127622114222055 0.46771514106852247 0.0
0.8972552588337357 0.741469377602099 0.0
0.741324952472065 0.10231958450954637 0.0
0.25825786871462636 0.8963664741083944 0.0
0.10284054882394046 0.2575512818250343 0.0
0.7442664404126805 0.8827205516005507 0.0
0.11830675704068497 0.7437732280574659 0.0
0.8809336072282372 0.2561344710624202 0.0
0.2553825954300779 0.11764147868123564 0.0
0.7408632403032243 0.603836552818554 0.0
0.6082470712935354 0.25076719603895814 0.0
0.3947559010802569 0.7474505462775205 0.0
0.2538422375848446 0.3938514966587445 0.0
0.5227819905846531 0.5912197781560549 0.0
0.8978794146127421 0.8853793332190957 0.0
0.8831211238595194 0.10055495395867031 0.0
0.11525911265096525 0.8989767229285796 0.0
0.10019372032398013 0.11489427925771249 0.0
0.7613054221403288 0.39204787403796304 0.0
0.23805038058816205 0.6094208288068887 0.0
0.39069148596704195 0.23530244171264464 0.0
0.896866030161204 0.43658653561312577 0.0
0.4360749535528815 0.10191102516726737 0.0
0.5642305906364832 0.8941735569092599 0.0
0.10204271139493588 0.5631851987637961 0.0
0.7876580775790747 0.7421551015030703 0.0
0.7411788012301986 0.2111473918970102 0.0
0.2566169151603103 0.7884566951667313 0.0
0.21128795042162477 0.2563954788274459 0.0
0.7202051463521913 0.8001509668942636 0.0
0.7932131079856206 0.28287139639759973 0.0
0.20495669219146848 0.7166716799169002 0.0
0.2870539643349473 0.2011816358074437 0.0
0.5937506048305082 0.4944955529751079 0.0
0.4902685558753272 0.41129441344660267 0.0
0.4247180713980364 0.5458213823668582 0.0
0.631896726051283 0.7575464888198253 0.0
0.6515114846801872 0.3542918307648848 0.0
0.495442916373845 0.6919765755949033 0.0
0.35345111542288116 0.6418183357643046 0.0
0.3494757171797394 0.34670939294255465 0.0
0.9156971113098067 0.8148417353394809 0.0
0.8143205103630908 0.08310362176809004 0.0
0.18410315157598922 0.9159271487949393 0.0
0.08301661444206038 0.18389061487698766 0.0
0.8273079363200372 0.9098601394260364 0.0
0.09077096953361559 0.8279058219095734 0.0
0.9083845089339464 0.17140937427406605 0.0
0.17125544277329696 0.08990321851896486 0.0
0.6981078822613296 0.5178732342837151 0.0
0.6483836632040726 0.647927025938739 0.0
0.5121085561795147 0.3029285178789396 0.0
0.2999024323372305 0.48344950324774805 0.0
0.9168325464991849 0.6072449181587818 0.0
0.6123628848668695 0.08530588466071465 0.0
0.39534513189437864 0.9197457907387366 0.0
0.08248825663273514 0.38666501875645526 0.0
0.6634807876851206 0.9178811609547156 0.0
0.08068999649181774 0.6618217841000889 0.0
0.9188706790462968 0.3376578045418618 0.0
0.33750078749082524 0.0805205914662653 0.0
0.8211490696042696 0.4364633022275863 0.0
0.5664078859738279 0.8157528119798788 0.0
0.43522990742623724 0.17656465208959268 0.0
0.17770103332992154 0.5639723282140453 0.0
0.433785615893401 0.4573205598982168 0.0
0.8177700814671731 0.5694819573361285 0.0
0.5679374522693632 0.18061037400286967 0.0
0.4301370055682757 0.8177229865191371 0.0
0.1808057210688464 0.4303612862963081 0.0
0.7705928541836797 0.6677512622763835 0.0
0.6672869098081068 0.22552953437077478 0.0
0.3315620068795414 0.7748830840187083 0.0
0.22542201817850566 0.3301338334231906 0.0
0.9281151161159036 0.6837306851771934 0.0
0.6838627450635385 0.07134320020449518 0.0
0.31248747319634157 0.9258475286746343 0.0
0.07310384485657175 0.3111129223953285 0.0
0.5610127013491767 0.7396378154973333 0.0
0.601784336667708 0.4191116538517703 0.0
0.37469695246556195 0.49804473169218605 0.0
0.7330514887082974 0.458878125510489 0.0
0.4551616339718826 0.2614319588532891 0.0
0.26643185158184207 0.5413389344699654 0.0
0.5868197253409234 0.61366650811072 0.0
0.4179529101173839 0.3855466754266531 0.0
0.5714217048450158 0.541722124272216 0.0
0.5476628201451234 0.4484288483234529 0.0
0.9335244259498432 0.4958257199135254 0.0
0.4972362203087892 0.06554836434140301 0.0
0.5012399563402622 0.9309142360479831 0.0
0.06597194910307036 0.501680708937204 0.0
0.8447516747494661 0.4981140311675566 0.0
0.4963194687821547 0.15321291841922682 0.0
0.4986169991972915 0.8414958670974387 0.0
0.15394180455981468 0.5019197698208908 0.0
0.8437878804483678 0.6977094525584625 0.0
0.6973065695734965 0.1554262439506738 0.0
0.3009196690777583 0.8434300055716958 0.0
0.1555995695735462 0.3004424799216694 0.0
0.7706917028555278 0.8367198929492834 0.0
0.8341673356964859 0.22853126399428722 0.0
0.16443688888252897 0.7712471827815637 0.0
0.22733369132136316 0.16342932722504655 0.0
0.7609941336916292 0.3274498943600196 0.0
0.23713300651597305 0.6730944783385847 0.0
0.32555190529727807 0.2367372073945729 0.0
0.6388195235752723 0.3011698629179278 0.0
[...]
POINT_DATA 2209
SCALARS Psi double
LOOKUP_TABLE default
0.0
0.0
0.0
0.0
0.0
0.0
0.0
0.0
0.0
0.0
0.0
0.0
0.0
0.0
0.0
0.0
0.0
0.0
0.0
0.0
0.0
0.0
0.0
0.0
0.0
0.0
0.0
0.0
0.0
0.0
0.0
0.0
0.0
0.0
0.0
0.0
0.0
0.0
0.0
0.0
0.0
0.0
0.0
0.0
0.0
0.0
0.0
0.0
0.0
0.0
0.0
0.0
0.0
0.0
0.0
0.0
0.0
0.0
0.0
0.0
0.0
0.0
0.0
0.0
0.0
0.0
0.0
0.0
0.0
0.0
0.0
0.0
0.0
0.0
0.0
0.0
0.0
0.0
0.0
0.0
0.0
0.0
0.0
0.0
0.0
0.0
0.0
0.0
0.0
0.0
0.0
0.0
0.0
0.0
0.0
0.0
0.0
0.0
0.0
0.0
0.0
0.0
0.0
0.0
0.0
0.0
0.0
0.0
0.0
0.0
0.0
0.0
0.0
0.0
0.0
0.0
0.0
0.0
0.0
0.0
0.0
0.0
0.0
0.0
0.0
0.0
0.0
0.0
0.0
0.0
0.0
0.0
0.0
0.0
0.0
0.0
0.0
0.0
0.0
0.0
0.0
0.0
0.0
0.0
0.0
0.0
0.0
0.0
0.0
0.0
0.0
0.0
0.0
0.0
0.0
0.0
0.0
0.0
0.0
0.0
-0.05834464822699194
-0.08965307303185271
-0.013521832108820755
-0.0562979864139078
-0.013252721042685343
-0.03445982237195778
-0.011765032812326201
-0.09186740493132493
-0.023257833256330816
-0.06848077797194607
-0.00150455841394187
-0.03776821884291185
-0.002166923741457052
-0.07099565733530644
-0.03128948834003605
-0.07604226367103646
-0.03374502266429395
-0.039809445276587356
-0.004598404442512287
-0.06896020164968247
-0.0071719606373249496
-0.09113728386423134
-0.007237150369355397
-0.020954669198543815
-0.004977723764630435
-0.040202911331153696
-0.0944707257321427
-0.023121804012007915
-0.04693522218734963
-0.013585955694498294
-0.0031912689448296886
-0.07209784212045124
-0.007040662622660169
-0.03163375764875437
-0.001140782520450488
-0.051009660631397925
-0.0018411187652823595
-0.07397209523191171
-0.017124097871255725
-0.0015991182335292895
-0.0018380042655240444
-0.06404487289152284
-0.013302474728283121
-0.07809215913877952
-0.018641824867012453
-0.07771678814212751
-0.04172940601525711
-0.00010655061688246891
-0.02751280616848883
-0.0002935053749502206
-0.01919362021877767
-0.03548881664983012
-0.011778479922201981
-0.005492208428911805
-0.0025750665612401104
-0.0731954870855117
-0.008204553078159243
-0.07689327778595133
-0.005165571041182543
-0.05272676209695551
-0.006300259816810146
-0.09262922720768876
-0.006606717426463178
-0.036169631622477036
-0.006163072861834127
-0.05712401192932188
-0.03945770435829906
-0.059750004146978876
-0.10022508079650783
-0.024871199160190045
-0.08980114789272872
-0.062148076279981174
-0.021960540982795228
-0.030048238680346537
-0.00031226396097451005
-0.03983631191049718
-0.0005952001791938156
-0.05537923082570976
-0.015196758898463173
-0.0002630433218346379
-0.0005203516908726115
-0.052294775647835995
-0.08858989499956338
-0.021699798791526947
-0.03360742116137468
-0.01114972612608614
-0.0015606068457510985
-0.055625896336479526
-0.0027378198504687456
-0.06192353971621479
-0.007117981736857966
-0.001504393503070931
-0.0013024327006110063
-0.01578323485046607
-0.09441321018487844
-0.0073399898630906015
-0.02059149210691412
-0.04503952988826294
-0.03542713518521511
-0.007534169481345882
-0.08180340611867148
-0.013219435891424951
-0.0701158682113679
-0.008888535437532517
-0.06732790426059293
-0.011366533910187583
-0.013305089904748442
-0.000818104788494107
-0.048359912175280406
-0.0014342376228110624
-0.09846722559847709
-0.040002816797372345
-0.04568672631258608
-0.033851393591499
-0.01588862753884121
-0.03469758930026346
-0.08417174633079481
-0.0317885500096871
-0.06865418371999535
-0.04768096142205999
-0.003553828923514091
-0.0011860548630217172
-0.05335256409756453
-0.003090844876593598
-0.018281206428571384
-0.005797441851191533
-0.08537042558450075
-0.013443444260900834
-0.04933074444843975
-0.003586173564228777
-0.06157391948578793
-0.005228809445769326
-0.08131763846067569
-0.0024959388769582036
-0.029948481901000093
-0.0029213396956839187
-0.01227100783236664
-0.040468422080524466
-0.009850141379905109
-0.01806420762190301
-0.06965353375285833
-0.019736827688972808
-0.05761619332269257
-0.0018310729205196045
-0.004912464473803828
-0.0012017336855584748
-0.0619330480463097
-0.0834880519741627
-0.017164772933679177
-1.1737352758081922e-05
-0.02527751243513503
1.4036924823062508e-05
-0.06895179133233051
-0.0044572516095394
-0.0008897165095915692
-0.04844092685455891
-0.0019336499033013905
-0.016050916370533602
-0.00032902546157913124
-0.039621531261274656
-0.0005800569311479684
-0.04820346368741343
-0.006393281121658836
-0.0002960665296767117
-0.0004586930062693096
-0.059291186953566506
-0.0020792132034851275
-0.04907523658518177
-0.002978424800355164
-0.08756044187249389
-0.004522700145109601
-0.022340086762692224
-0.004019483801687383
-0.08105164248359513
-0.05822412440714169
-0.030562481204575023
-0.04922818859288995
-0.02121499550717169
-0.09710284167229605
-0.027413411962834717
-0.07265839796323875
-0.014371876396305744
-0.023414930329039574
-0.020618230897753494
-3.6444222546696924e-05
-0.030251312372844532
-0.00012966273932851871
-0.04148813952180696
-0.010779160113360943
-4.208829794370264e-05
-0.0001612000708220715
-0.08838294416970806
-0.02802356957230096
-0.018904802498207866
-0.048067984836612405
-0.08639064014512829
-0.02476769171940652
-0.004189819708060214
-0.07344944393054685
-0.007542402871581674
-0.08801798026634508
-0.007992079989274096
-0.05010111049032586
-0.00847486340890358
-0.09728874372239892
-0.05361281310319782
-0.008995504968060177
-0.07552196074647018
-0.013157510940848277
-0.05026889644165278
-0.005351351335444345
-0.0005069087319327571
-0.0006064057381789862
-0.05050812194409805
-0.0004423185593618629
-0.034866404837776456
-0.0008226580003627848
-0.015162794935033131
-0.008549604617348683
-0.027006746549382114
-0.08237817618209466
-0.07772613488026975
-0.0031115082365704423
-0.042847325204288786
-0.0039230453608680455
-0.019130620683669743
-0.0500509045840498
-0.015159121503244834
-0.00518485436482893
-0.08057823788398484
-0.0031914583455927275
-0.01249980121456989
-0.09783760429770591
-0.07306366799668516
-0.09596161692097557
-0.05460567852729412
-0.07071062220112642
-0.008794109139016477
-0.031178552107557916
-0.006770887995378409
-0.03770051450987583
-0.023659292085825095
-0.026013223680491148
-0.0013804221324580565
-0.0007070582929271269
-0.04585793541715517
-0.002413537813941559
-0.07079924491184406
-0.02519698505798905
-0.001085044749367805
-0.0015491631325396877
-0.009125902454764844
-0.003180934468994058
-0.07552652010588726
-0.008249936448714775
-0.02397251070536522
-0.01169414763593989
-0.02984508068214494
-0.04694108247774787
-0.06078700205844585
-0.031079402498529925
-0.0024895005682192264
-0.06174906346688788
-0.003956837710906911
-0.0064477749115259535
-0.00021483268583339575
-0.030397472400238098
-0.0003205711669572435
-0.003550838800035671
-0.00031791886685066025
-0.0360276433841898
-0.0007096114383384892
-0.030880184440442382
-0.09506046887117704
-0.035129278445890665
-0.0476861058790355
-0.05375663024193671
-0.0992671250538986
-0.04930306178588889
-0.0010048092618795519
-0.04438104087495485
-0.0016006775512298684
-0.08201898519238823
-0.009532578840812943
-0.05919164768085631
-0.01074533504777001
-0.05432738662325485
-0.00029292545307622707
-0.02518608296030607
-0.000592476044520939
-0.06414990724136048
-0.02453872756997745
-0.09389718500133956
-0.06914948449771165
-0.036861222504103536
-0.041526719244568924
-0.09576998151119429
-0.03190807100124945
-0.03830041459659186
-0.06586049454955258
-0.04113521726888007
-0.04306371953818147
-0.01627069665114147
-0.02026236572979255
-0.030536266656314006
-0.08202715564559829
-0.09082269010032328
-0.010256959572878683
-7.406382624826567e-05
-0.030165233624999586
-0.0001691002192611656
-0.03938283615176398
-0.0052496345609029825
-8.454813405281104e-05
-0.00020018643709769805
-0.04117279631165643
-0.05059786577516627
-0.05418341016314351
-0.011606198999333
-0.017985680519776382
-0.023422075751816034
-0.005883269264136551
-0.0865191316031004
-0.011907120877309298
-0.08063433091546193
-0.014902784834549664
-0.0036299448145514354
-0.002940833486285175
-0.03696376782586131
-0.0019628767562647896
-0.0004215838600023094
-0.00036730810378586364
-0.0030493512003117343
-0.0005272469914369202
-0.03494322424748516
-0.0010457993931644015
-0.012257154688372079
-0.005043822934439327
-0.08652692332484777
-0.01386291954253394
-0.028561181078068956
-0.00984015475956857
-0.09118732189519675
-0.0054082075677213005
-0.01832149314805158
-0.012999500524547259
-0.07253951516590201
-0.01637832224286368
-0.06577983350087584
-0.015898703192873922
-0.0007688985925436613
-0.0010988176938408422
-0.08401097677636643
-0.03235436275581443
-0.000640842045104437
-0.045232280140565524
-0.0011027675872663288
-0.02613996283688883
-0.003018402481687252
-0.06663821897208841
-0.005047816559674876
-0.014791121064790604
6.472225674032956e-06
-0.023102250994799386
-2.4241285524220282e-05
-0.0066779686721848
-0.027174642088992337
-1.866492178575567e-05
1.0239084020408267e-05
-0.08151698702582033
-0.0573469793579775
-0.005953384733298897
-0.06649845314245896
-0.008266177616747025
-0.07107036040015867
-0.011849486298222576
-0.0018346080997373585
-0.0018073814943440612
-0.09001116095354178
-0.018896992039891813
-0.05950782109139401
-0.017571346466231062
-0.010739497648633741
-0.01933121104539236
-0.03924365879765275
-0.026705025716301043
-0.022814532304715866
-0.00865216714477235
-0.02041379742976096
-0.010388984585431093
-0.001996173547750992
-0.06271172941288476
-0.004069984475905931
-0.0800760804541171
-0.04860802258199164
-0.06239686874386407
-0.07587188356426881
-0.07194962811951691
-0.017853753160277742
-0.021996204274800733
-0.037101199855570303
-0.0057999420083790065
-0.07601174733151277
-0.00946439171186117
-0.013439092410939714
-0.009123508807843921
-0.03349172304398702
-0.0999489813524157
-0.04788389311697533
-0.0718054576470958
-0.006538262901134073
-0.06023496546110375
-0.00819510147200498
-0.0015201279037978601
-0.00039732964569850733
-0.03423024211757965
-0.0009989586700335593
-0.0775426043207567
-0.07546211519029085
-0.07807377378223272
-0.03809636593161735
-0.03406176676764081
-0.018822317493176966
-0.042650734551849194
-0.08992027895441006
-0.08843738491385007
-0.08553610490573989
-0.003440958676554843
-0.027762311991526824
-0.0035636005956044144
-0.08722781940379547
-0.0045547648030756
-0.0407247724867358
-0.005038674820270531
-0.05148451451147586
-0.002393682301958346
-0.05465471007477626
-0.003484135442390182
-0.023941416490979164
-0.001162481538290389
-0.0526424457054565
-0.0019872749392320973
-0.03178161095298553
-0.013268653896742554
-0.02874972054931371
-0.09609958068838394
-0.013747452208815977
-0.06527531850891305
-0.01530922351085923
-0.04784650542144794
-0.025699437538110066
-0.003836907304113238
-0.00020950329261098147
-0.027914481669404016
-0.00031911869037046464
-0.03677524662471484
-0.0369989550349817
-0.06943556006490566
-0.01526952765745339
-0.0014307784946796685
-0.054850802346281126
-0.002373732741796339
-0.011008938518342965
-0.04806027368283748
-0.010325623185972962
-0.03468929173777859
-0.00015804579154049018
-0.034003831174622856
-0.00037003111403898506
-0.03429975459492806
-0.001961662948291194
-0.00025747052577015705
-0.000277448396165394
-0.0009524289797252867
-0.00034763015347271655
-0.0324703391547783
-0.0010275333471857818
-0.006184196159204735
-0.0014732678462699021
-0.0572647161966194
-0.003392634847347085
-0.010595341852236604
3.3589905878748218e-06
-0.01359002336679396
4.609876595804614e-06
-0.08090548314626456
-0.026926867964753923
-0.015124984852185969
-0.03868395928194853
-0.06150578783041754
-0.0006412001333023403
-0.029323152828414776
-0.001076305019403094
-0.03177399770353686
-0.0022922699223608283
-0.00010631224853328038
-0.00017322655921753815
-0.00843589250754436
-0.017402648231390073
-0.027856599692450062
-0.09643604271805674
-0.05159900273042822
-0.06359047753081871
-0.006853817824994108
-0.0020118898667254555
-0.00147381623753393
-0.09237735192211598
-0.09912116357777707
-0.0773543001166244
-0.024182606006785255
-0.0018002905571897325
-0.0021924319457811707
-0.05904875343790312
-0.0007226553125450765
-0.008913090764777568
-0.0009111182165117687
-0.08650564290901351
-0.0871101701883204
-0.019119631421645383
-0.0005358109635512543
-0.04407409683385609
-0.0009182340910751198
-0.05416608183456552
-0.0032418870577336193
-0.0013843781243928763
-0.05859652125868425
-0.0042851442324359935
-0.03458325598827181
-0.001351869967395372
-0.0006056565037942458
-0.0003510993950829146
-0.08409336355554273
-0.06396568224050735
-0.08129678860820945
-0.04463483811068729
-0.08338307251317736
-0.00754781177284628
-0.08214275708924548
-0.003736035784964775
-0.012035421947821045
-0.07127872268199271
-0.044700996944792015
-0.019317279529588085
-0.029107856681406193
-0.09864816198819996
-0.0161239744544297
-0.02216161542890703
-0.009950117423372337
-2.4594431926956853e-05
-1.0798686770705672e-05
-6.447479564240341e-05
-0.029540993124093244
-0.0037359200288563776
-0.026236585772256626
-8.10478420063308e-05
-0.02357688240161192
-0.053134769484994154
-0.018361339057036897
-0.06206313323236288
-0.06254339283709834
-0.017140090480997874
-0.040792654782319936
-0.012136625422947146
-0.07807603670147795
-0.054397899816476136
-0.07517727992539462
-0.002009022792980598
-0.03585015541031926
-0.0026493845478534703
-0.09344343819115472
-0.06987199076289131
-0.0031191855624216323
-0.06735719322203343
-0.001986093406746888
-0.04889773589398543
-0.04341211789257464
-0.004103267765913162
-0.002774267507391573
-0.00969753890915
-0.02568536581818717
-0.006507540900588838
-0.09010529544944809
-0.0031840473624882406
-0.06593910838509773
-0.0017933469143720845
-0.006518853872738081
-0.028350850617678502
3.7260039496740424e-06
-0.023413702384602286
-5.843516155620164e-05
-0.0037359033176845875
-8.16317362751585e-05
-0.023460619955720487
-0.00014268919334551277
-0.02175677884654472
-0.022023021957533646
-0.06790418631115966
-0.005734620034464098
-6.01188850599902e-05
-0.02484902958474742
-0.00012246813518902163
-0.030239163982151537
-0.0025233168344323416
-5.573653852972403e-05
-0.00012352097741690572
-0.0646972024554701
-0.045334122739936464
-0.0013858527475286077
-0.049726544531437974
-0.0021397455082429453
-0.014070466702065625
-0.0041433763654127815
-0.07937538792202717
-0.00965125384615808
-0.067076235625741
-0.004225608879172197
-0.055673606493303024
-0.005578262368312141
-0.009513274934854214
-0.03653855928282905
-0.008282434373262827
-0.05407967756297559
-0.09055544148086292
-0.0901108813867428
-0.022476021393172174
-0.04304766727365847
-0.014876206184310074
-0.04098665270034922
-0.01678717909408242
-2.769616181620189e-05
-0.00014674056823651047
-0.04181816246768013
-0.003722670821001907
-0.06493822543557896
-0.005640480552909359
-0.08332811575086191
-0.004994739764222481
-0.04669812259504511
-0.005785185911860338
-0.032272289212567945
-0.08328071799173864
-0.06257802691420235
-0.03317625592976011
-0.03188436460447188
-0.0931660305484753
-0.0005895839093702576
-0.00010705929872701732
-0.0203829255398606
-0.00025551187503746516
-0.055919001751246145
-0.0893119304726129
-0.02856992883428549
-0.05170561398247377
-0.03294019099258294
-0.004996414512044639
1.4801896406644174e-06
-0.008991453644856809
-0.01958074726645556
-0.016657889167590364
6.243981524256553e-06
7.822528680411262e-06
2.3905016787070647e-06
-0.06863030072745077
-0.005349212778857041
-0.005879032715386135
-0.027686384490243198
-0.02219911729692476
-0.0051298595159844735
-0.004645952867361381
-0.09903141747005798
-0.055059590243253874
-0.015471434905892183
-0.049325403438145975
-0.013113209286568894
-0.041537764920153514
-0.09634031363516049
-0.042868159344160724
-0.0023635098424886246
-0.05759328166137643
-0.003555643096679799
-0.09312652193257419
-0.011328019130049468
-0.07545065147491307
-0.015410505087186051
-0.09678662895999346
-0.05138974102847731
-0.0066806703936865015
-0.07119188921002041
-0.009699795647603086
-0.04889107251865489
-0.015043210692086594
-0.00012178582069864713
-0.00031192066598100627
-0.08134253054246589
-0.02171450481397612
-0.0026012035530706824
-0.0027456287628426926
-0.07574427322019082
-0.032039427406763445
-0.06396085114360589
-0.09561858575605421
-0.024186691618172614
-0.014326122117696674
-0.025645537060634282
-0.07654567583179055
-0.042533413698978145
-0.018468850123198356
-0.010564468845718223
-0.03141426939574828
-0.007537308317694488
-0.04107925574570853
-0.0072926637574937244
-0.020467080194585856
-0.004359903281907645
-0.008666673447397138
-0.07491007002595497
-0.08647186081281406
-0.03353059273222797
-0.003794373746441031
-0.0040864642211831306
-0.020625658771701243
-0.00023375629620455888
-0.038409369126680866
-0.000451513854379512
-0.049847005519511274
-0.00858317539749685
-0.0002318262917358857
-0.00042179885312753593
-0.05343993230234975
-0.025076167800538025
-0.0729082180893123
-0.017426120288532264
-0.006484188645951757
-0.01614172875793139
-0.02897658553031389
-0.001028049703935906
-0.00026805135874789576
-0.00021181887605196354
-0.09254660346093883
-0.018515352082140467
-0.03217307214441126
-6.644298779853244e-05
-0.00017877472484031337
-0.08005002443827187
-0.0066793347189856855
-0.05459646082486388
-0.0077931032280719875
-0.06290415504821656
-0.031364876734984476
-0.004336945064685717
-0.07227409804538296
-0.007262151537268277
-0.08313568726501061
-0.004851914646419598
-0.014946099179022853
-0.0034050222790069137
-0.09879752176906247
-0.04690660993343512
-0.09551277025843391
-0.060842984132093915
-0.0004637333829529013
-0.021473123566437952
-0.0008098760391956547
-0.021465029606189782
-0.008070925026157999
-0.05367841338619151
-0.00995818764712726
-4.183329655744796e-07
-0.02385583571776615
-3.251877448615705e-05
-0.024095862155930986
-0.0034687125404649732
6.485828139379641e-06
-1.797596618895809e-05
-0.09082035149550319
-0.016942880489692135
-0.008503859666014186
-0.02438630124279123
-0.05955231484320668
-0.0008966141919285399
-0.037046476419257075
-0.0014286436022912935
-0.028867335655755024
-0.001110465101781662
-0.0022691408465464772
-0.06287847994185798
-0.05665886202374685
-0.010468931937948333
-0.053493595879771906
-0.010688981642813377
-0.0011556014334484685
-0.0001328688812137118
-0.02382118077799397
-0.0002693462318634057
-0.08599478958452372
-0.07505693802312896
-0.07889798284496907
-0.01964601985624485
-0.0027549544810522224
-0.06671685052306184
-0.004908173431583276
-0.05986983876436325
-0.001080678517736649
-0.007298432309348171
-0.0010826304898830508
-0.03256573983565005
-7.700801351075682e-05
-0.031081636951113167
-0.00023033495977271707
-0.04784026932495166
-0.040446300714740396
-0.0004060144759265137
-0.0390060503749232
-0.0007580379512677986
-0.09852518048806957
-0.029516764868482686
-0.005676586505043582
-0.010250567935273782
-0.049744498579790325
-0.00024745621092753153
-0.02868487526657461
-0.0005325662877661469
-0.010506244440550037
-0.006344036942939996
-0.022642605249254443
-0.03146242051929462
-0.015186840653261638
-0.0006823159147562406
-0.04804323549639633
-0.0013389211058868376
-0.018831076782852143
-0.0006349731296111687
-4.237788177719008e-05
-6.502932971697036e-05
-0.008137615759166265
-0.015532881735470721
-0.05668328644263311
-0.017894111242240492
-0.029934075370789955
-0.08300088182935333
-0.034372225434435556
-0.04526852524257729
-0.008949662820672215
-0.014158583392957941
-0.0014445339954415922
-9.294522363086395e-05
-0.021289965000107
-0.0001618699417376067
-0.020777957749534656
-0.021561013809908828
-0.00963711244700999
-0.02460693672434609
-0.048111104569345524
-0.021552988634504652
-0.00012106639942394471
-0.0003221711641105942
-0.026838433932037234
-0.0955547333499336
-0.00864043865941889
-0.0026409315039953433
-0.0701419099211074
-0.006403642697254288
-0.07473124962398085
-0.061764689792272995
-0.029413062488046548
-0.07930257138153529
-0.015574619376623444
-0.06108957300774813
-0.01575396121706445
-0.009020072514465259
-0.07170655678126231
-0.012260508377677181
-0.060065555336654496
-0.03313718384269417
-0.068164048321612
-0.0005885754424361344
-0.00019385666263838794
-0.02458609749990146
-0.0005194084714192198
-0.013140531287723503
-0.004665504615222277
-0.08424312585455701
-0.011846791950651992
-0.07366941385876173
-0.05657694724230515
-0.0280213666655591