# vtk DataFile Version 1.0
2D Simulation C++
ASCII
DATASET UNSTRUCTURED_GRID
FIELD FieldData 1
NODES 1 2 int
2209 4256

POINTS 2209 double
0.0 0.0 0.0
0.0 1.0 0.0
1.0 1.0 0.0
1.0 0.0 0.0
0.0 0.02500000037252903 0.0
0.0 0.05000000074505806 0.0
0.0 0.07500000298023224 0.0
0.0 0.10000000149011612 0.0
0.0 0.125 0.0
0.0 0.15000000596046448 0.0
0.0 0.17499999701976776 0.0
0.0 0.20000000298023224 0.0
0.0 0.22499999403953552 0.0
0.0 0.25 0.0
0.0 0.2750000059604645 0.0
0.0 0.30000001192092896 0.0
0.0 0.32499998807907104 0.0
0.0 0.3499999940395355 0.0
0.0 0.375 0.0
0.0 0.4000000059604645 0.0
0.0 0.42500001192092896 0.0
0.0 0.44999998807907104 0.0
0.0 0.4749999940395355 0.0
0.0 0.5 0.0
0.0 0.5249999761581421 0.0
0.0 0.550000011920929 0.0
0.0 0.574999988079071 0.0
0.0 0.6000000238418579 0.0
0.0 0.625 0.0
0.0 0.6499999761581421 0.0
0.0 0.675000011920929 0.0
0.0 0.699999988079071 0.0
0.0 0.7250000238418579 0.0
0.0 0.75 0.0
0.0 0.7749999761581421 0.0
0.0 0.800000011920929 0.0
0.0 0.824999988079071 0.0
0.0 0.8500000238418579 0.0
0.0 0.875 0.0
0.0 0.8999999761581421 0.0
0.0 0.925000011920929 0.0
0.0 0.949999988079071 0.0
0.0 0.9750000238418579 0.0
0.02500000037252903 1.0 0.0
0.05000000074505806 1.0 0.0
0.07500000298023224 1.0 0.0
0.10000000149011612 1.0 0.0
0.125 1.0 0.0
0.15000000596046448 1.0 0.0
0.17499999701976776 1.0 0.0
0.20000000298023224 1.0 0.0
0.22499999403953552 1.0 0.0
0.25 1.0 0.0
0.2750000059604645 1.0 0.0
0.30000001192092896 1.0 0.0
0.32499998807907104 1.0 0.0
0.3499999940395355 1.0 0.0
0.375 1.0 0.0
0.4000000059604645 1.0 0.0
0.42500001192092896 1.0 0.0
0.44999998807907104 1.0 0.0
0.4749999940395355 1.0 0.0
0.5 1.0 0.0
0.5249999761581421 1.0 0.0
0.550000011920929 1.0 0.0
0.574999988079071 1.0 0.0
0.6000000238418579 1.0 0.0
0.625 1.0 0.0
0.6499999761581421 1.0 0.0
0.675000011920929 1.0 0.0
0.699999988079071 1.0 0.0
0.7250000238418579 1.0 0.0
0.75 1.0 0.0
0.7749999761581421 1.0 0.0
0.800000011920929 1.0 0.0
0.824999988079071 1.0 0.0
0.8500000238418579 1.0 0.0
0.875 1.0 0.0
0.8999999761581421 1.0 0.0
0.925000011920929 1.0 0.0
0.949999988079071 1.0 0.0
0.9750000238418579 1.0 0.0
1.0 0.9750000238418579 0.0
1.0 0.949999988079071 0.0
1.0 0.925000011920929 0.0
1.0 0.8999999761581421 0.0
1.0 0.875 0.0
1.0 0.8500000238418579 0.0
1.0 0.824999988079071 0.0
1.0 0.800000011920929 0.0
1.0 0.7749999761581421 0.0
1.0 0.75 0.0
1.0 0.7250000238418579 0.0
1.0 0.699999988079071 0.0
1.0 0.675000011920929 0.0
1.0 0.6499999761581421 0.0
1.0 0.625 0.0
1.0 0.6000000238418579 0.0
1.0 0.574999988079071 0.0
1.0 0.550000011920929 0.0
1.0 0.5249999761581421 0.0
1.0 0.5 0.0
1.0 0.4749999940395355 0.0
1.0 0.44999998807907104 0.0
1.0 0.42500001192092896 0.0
1.0 0.4000000059604645 0.0
1.0 0.375 0.0
1.0 0.3499999940395355 0.0
1.0 0.32499998807907104 0.0
1.0 0.30000001192092896 0.0
1.0 0.2750000059604645 0.0
1.0 0.25 0.0
1.0 0.22499999403953552 0.0
1.0 0.20000000298023224 0.0
1.0 0.17499999701976776 0.0
1.0 0.15000000596046448 0.0
1.0 0.125 0.0
1.0 0.10000000149011612 0.0
1.0 0.07500000298023224 0.0
1.0 0.05000000074505806 0.0
1.0 0.02500000037252903 0.0
0.9750000238418579 0.0 0.0
0.949999988079071 0.0 0.0
0.925000011920929 0.0 0.0
0.8999999761581421 0.0 0.0
0.875 0.0 0.0
0.8500000238418579 0.0 0.0
0.824999988079071 0.0 0.0
0.800000011920929 0.0 0.0
0.7749999761581421 0.0 0.0
0.75 0.0 0.0
0.7250000238418579 0.0 0.0
0.699999988079071 0.0 0.0
0.675000011920929 0.0 0.0
0.6499999761581421 0.0 0.0
0.625 0.0 0.0
0.6000000238418579 0.0 0.0
0.574999988079071 0.0 0.0
0.550000011920929 0.0 0.0
0.5249999761581421 0.0 0.0
0.5 0.0 0.0
0.4749999940395355 0.0 0.0
0.44999998807907104 0.0 0.0
0.42500001192092896 0.0 0.0
0.4000000059604645 0.0 0.0
0.375 0.0 0.0
0.3499999940395355 0.0 0.0
0.32499998807907104 0.0 0.0
0.30000001192092896 0.0 0.0
0.2750000059604645 0.0 0.0
0.25 0.0 0.0
0.22499999403953552 0.0 0.0
0.20000000298023224 0.0 0.0
0.17499999701976776 0.0 0.0
0.15000000596046448 0.0 0.0
0.125 0.0 0.0
0.10000000149011612 0.0 0.0
0.07500000298023224 0.0 0.0
0.05000000074505806 0.0 0.0
0.02500000037252903 0.0 0.0
0.5056599981717528 0.5027299887434472 0.0
0.711258405246333 0.7025336266638065 0.0
0.7024507608018655 0.29532308352866976 0.0
0.29699875381612983 0.7060965689756245 0.0
0.29509526488945786 0.29619250067066505 0.0
0.7763275419752482 0.5057405399908386 0.0
0.5023912729840512 0.22205667524953634 0.0
0.4922750327907118 0.7778974950802534 0.0
0.22313143239345898 0.4961466815568802 0.0
0.828643620501948 0.8208836997272317 0.0
0.819545943929316 0.17112794087200023 0.0
0.1807244146695317 0.8294086924813519 0.0
0.17101508646029812 0.180054679053346 0.0
0.643030204855536 0.5661099744368091 0.0
0.5643165262600341 0.36705865832044116 0.0
0.44167079583413804 0.6345580099730276 0.0
0.36254114798615994 0.42782633717718616 0.0
0.8450049865035326 0.6440218068472757 0.0
0.6443901670442851 0.15572183099638148 0.0
0.3505897874299803 0.841662413426817 0.0
0.15585115695938592 0.35557918269495736 0.0
0.648305326040373 0.8417124252002764 0.0
0.8420097394898873 0.3581927099157291 0.0
0.1583174577597651 0.6431858588259579 0.0
0.35888912402697987 0.15741050006329166 0.0
0.6741117265234948 0.4491793046680831 0.0
0.583443881552629 0.6765066453817625 0.0
0.44749999794323825 0.3202192822320299 0.0
0.3281969006407225 0.556403383236028 0.0
0.8821624882386842 0.5315347051385383 0.0
0.5313625308616761 0.11342993248467358 0.0
0.46709668586780523 0.8858616924092448 0.0
0.11309667743456862 0.46866695814598347 0.0
0.8976681992471027 0.7422118471486744 0.0
0.7420852664998054 0.10273058229141724 0.0
0.25839460429709754 0.8967785465635372 0.0
0.10326934983137154 0.258280883199348 0.0
0.7454565184900269 0.882906486093914 0.0
0.11933201942457163 0.7438900531175131 0.0
0.881551312416707 0.25656711703900403 0.0
0.2563566196509371 0.11865447783015443 0.0
0.7417317146097004 0.6040490865271854 0.0
0.6088940860149425 0.2512719512008816 0.0
0.3952842145457159 0.7480354961297618 0.0
0.2541283251007629 0.3950596266131426 0.0
0.5237034525828773 0.5918439338036092 0.0
0.8985120799269034 0.8856061988279328 0.0
0.884319055356678 0.10090868580592863 0.0
0.1156576133139752 0.8996410590682717 0.0
0.10071948253734393 0.11566842182013817 0.0
0.761713606311674 0.3930218312244695 0.0
0.2389624656897076 0.6099127332072212 0.0
0.3911669744574461 0.2360685332388342 0.0
0.8974520098486118 0.43747110178408927 0.0
0.43677150207249704 0.1022977215162354 0.0
0.5652031293646389 0.8948678135611388 0.0
0.10352455500124809 0.5633871492362752 0.0
0.7879989965952119 0.7427500467460365 0.0
0.7423170157225194 0.21165833344941173 0.0
0.2576859055316005 0.7888983814070973 0.0
0.2119460972013058 0.25721463104909587 0.0
0.720598652646464 0.8005951534700023 0.0
0.7938833647001482 0.2835361481760685 0.0
0.20599680509355223 0.7178114931227784 0.0
0.2875374721293768 0.20153350273351797 0.0
0.5944474448552025 0.4948633073628548 0.0
0.4913499043927206 0.4121256293224896 0.0
0.4251493334403554 0.546799793506211 0.0
0.6325197370041031 0.7581826464292148 0.0
0.6518765804983446 0.3547406644775071 0.0
0.49629346431043 0.6925550115497286 0.0
0.3541087295977719 0.6426452849718846 0.0
0.3498387277443957 0.3477726195666321 0.0
0.9165389229474098 0.8156033881196217 0.0
0.8153844072671491 0.08399400278469091 0.0
0.18488628042242022 0.9165088179288926 0.0
0.08411347804884158 0.18516814234486215 0.0
0.8278418591461701 0.9099510627598361 0.0
0.0910193599476509 0.8280331590309651 0.0
0.9089239639120449 0.17195577693534272 0.0
0.17207699407885493 0.09122437361982391 0.0
0.6980828969389532 0.5183758181374925 0.0
0.6493670201666967 0.6489186400306979 0.0
0.5127354324587476 0.30356520932164177 0.0
0.30039281143931357 0.48389547634593816 0.0
0.9176783378141671 0.6078046505484812 0.0
0.6127556472812632 0.08586903771240846 0.0
0.395704250372194 0.9201303418007434 0.0
0.08341671290438267 0.38692796196426893 0.0
0.6638555439346557 0.9192697371318523 0.0
0.08149142901844689 0.662179050134558 0.0
0.9191109527941514 0.33856669359045133 0.0
0.3382108607570954 0.08121263443310317 0.0
0.8216257162809881 0.43731940348747844 0.0
0.5666651974735959 0.8162234261642561 0.0
0.43570683938199056 0.1769163212635042 0.0
0.17862175914596345 0.5641034353406412 0.0
0.434171890045578 0.4581338166270186 0.0
0.8187998141490653 0.5706812902467002 0.0
0.5685657001515412 0.18176439050658216 0.0
0.4307205850225003 0.8188486486984206 0.0
0.18181788722785883 0.43107514092979987 0.0
0.7709897605396908 0.6680836176116955 0.0
0.6682096306380692 0.22593447478645104 0.0
0.33162463876363774 0.7755369716365712 0.0
0.22638983972380078 0.33101866647468137 0.0
0.9287152469178762 0.6845571114039743 0.0
0.6848015960207322 0.07228407200857448 0.0
0.3129448383785294 0.9264253517060984 0.0
0.07389360979571472 0.3116370132670756 0.0
0.5616702853894532 0.7400075739096466 0.0
0.6023007578944896 0.41946973861564557 0.0
0.37541403403472723 0.4986307312005662 0.0
0.7343298415260825 0.45914233505349455 0.0
0.45597768312991355 0.2623460071767112 0.0
0.26668654059184327 0.5423695944069179 0.0
0.5872760577539012 0.6141519089668364 0.0
0.41894000343363763 0.38683094784254574 0.0
0.5724529079611623 0.5419291124134081 0.0
0.5485372414245331 0.44894026798711517 0.0
0.9336090655154102 0.4970909325996131 0.0
0.49781029273380656 0.06647805875240263 0.0
0.5019624147134187 0.9317809647704925 0.0
0.06628099436345475 0.5022360894924287 0.0
0.8450920734396368 0.4989064964368467 0.0
0.49746220854363465 0.15427019859247873 0.0
0.4989329024214967 0.8419898724416244 0.0
0.15420163129886671 0.5025330967180722 0.0
0.8445924920623237 0.6980736000560677 0.0
0.6978688306162459 0.1557737949332319 0.0
0.3011412027858547 0.8438624504857062 0.0
0.15622374580757822 0.301084937272853 0.0
0.7714294681782703 0.8371036815313194 0.0
0.8351227689781815 0.22880417006013692 0.0
0.16534809017829327 0.7718811116361851 0.0
0.22823882786530403 0.16471420993071037 0.0
0.7617106135571189 0.3280014663580215 0.0
0.23800681977225283 0.6742926020273867 0.0
0.32589938744817004 0.23783057156846366 0.0
0.6390191660230439 0.30189043157094647 0.0
[...]
POINT_DATA 2209
SCALARS Psi double
LOOKUP_TABLE default
0.0
0.0
0.0
0.0
0.0
0.0
0.0
0.0
0.0
0.0
0.0
0.0
0.0
0.0
0.0
0.0
0.0
0.0
0.0
0.0
0.0
0.0
0.0
0.0
0.0
0.0
0.0
0.0
0.0
0.0
0.0
0.0
0.0
0.0
0.0
0.0
0.0
0.0
0.0
0.0
0.0
0.0
0.0
0.0
0.0
0.0
0.0
0.0
0.0
0.0
0.0
0.0
0.0
0.0
0.0
0.0
0.0
0.0
0.0
0.0
0.0
0.0
0.0
0.0
0.0
0.0
0.0
0.0
0.0
0.0
0.0
0.0
0.0
0.0
0.0
0.0
0.0
0.0
0.0
0.0
0.0
0.0
0.0
0.0
0.0
0.0
0.0
0.0
0.0
0.0
0.0
0.0
0.0
0.0
0.0
0.0
0.0
0.0
0.0
0.0
0.0
0.0
0.0
0.0
0.0
0.0
0.0
0.0
0.0
0.0
0.0
0.0
0.0
0.0
0.0
0.0
0.0
0.0
0.0
0.0
0.0
0.0
0.0
0.0
0.0
0.0
0.0
0.0
0.0
0.0
0.0
0.0
0.0
0.0
0.0
0.0
0.0
0.0
0.0
0.0
0.0
0.0
0.0
0.0
0.0
0.0
0.0
0.0
0.0
0.0
0.0
0.0
0.0
0.0
0.0
0.0
0.0
0.0
0.0
0.0
-0.059039719590254995
-0.0900118115375828
-0.013695134239580162
-0.05668079519058855
-0.013530074622436956
-0.03471895912138203
-0.01196919388816383
-0.09214532073481287
-0.023675825618983844
-0.06835281466198688
-0.0015156566306803534
-0.038008132358234255
-0.002213280997679599
-0.07145717600941251
-0.03161982200578849
-0.07659913196261478
-0.034183205947424355
-0.03985040634854123
-0.004654864081076866
-0.06912021554213986
-0.007328557313763093
-0.09104746245058246
-0.007206793839585448
-0.021139227487599024
-0.005087880049266835
-0.04060053562491263
-0.09494699055809808
-0.023476318760641986
-0.04745731749414756
-0.013632637734969902
-0.0032613698796993386
-0.07187241892008892
-0.007153551671346171
-0.03151246434222682
-0.0011394159719370358
-0.05094705641314702
-0.0018938475267238737
-0.07384455255774197
-0.017327086056861892
-0.0015921807116722076
-0.0018838940096443187
-0.06432823496595547
-0.013492854416121467
-0.07850290720700775
-0.019016961799494653
-0.07837319232073889
-0.04156747332436146
-9.941733363621693e-05
-0.02761425256100813
-0.0002999691988803285
-0.019363729772441975
-0.03599577092952449
-0.01193487231269175
-0.00549951142856143
-0.0026227293079651424
-0.07303048100007005
-0.008398047935211879
-0.07695957374416156
-0.005192562311485348
-0.052964396023065144
-0.0064056649960066775
-0.09263098286508152
-0.006666563463963762
-0.03649596803633508
-0.00626442521321835
-0.057618195893750696
-0.04002750847163272
-0.06051098004962595
-0.10044673798935808
-0.025179468838803676
-0.0903032693860649
-0.06269419460514493
-0.022403424194694457
-0.029599643439489707
-0.00031093435545948223
-0.03972956927922589
-0.0006138026742698471
-0.05514466585704589
-0.015255551776690919
-0.0002563423173556882
-0.0005383755632772365
-0.05272785367582014
-0.08895799600824875
-0.02198325300707574
-0.03404726563535384
-0.011059426110425843
-0.0015820670275914705
-0.05536482185815132
-0.0028383704105642464
-0.06142316452475207
-0.007253958984416788
-0.0015043173252905317
-0.0013294109037144594
-0.01596021090996294
-0.09449949928723317
-0.007457263284095919
-0.020902976138312074
-0.04562644876222674
-0.0356199327428054
-0.007679032467945021
-0.08191616711507063
-0.013534877707761685
-0.07021386057150947
-0.00896971766660793
-0.06751300300901929
-0.01157627024590614
-0.013285241235584538
-0.0008344719625709289
-0.04810695932662915
-0.0014567228076742213
-0.09881299520192456
-0.04043157885609741
-0.04630808973690639
-0.03401471766845308
-0.016145493159518087
-0.03513104114125613
-0.08477992623322046
-0.0323614538516404
-0.06923164445572216
-0.048261109427532096
-0.003540927261786061
-0.001204570767125885
-0.052853031427076445
-0.0031528493371425913
-0.01837624018062343
-0.005950231598295227
-0.08547411404496583
-0.013689935600425125
-0.04923552818285965
-0.0036279440228853517
-0.06158839508941077
-0.0053413051220297806
-0.08123173762244705
-0.002484905235132983
-0.03013892107243726
-0.0029957111625279944
-0.01231638597174774
-0.04095309653318664
-0.010058897518560478
-0.018290277857216215
-0.07014064321290657
-0.020106237862043505
-0.05709774633684812
-0.0018230515996885076
-0.005029613876261285
-0.0012111158743382659
-0.06251754310704928
-0.08402410233306772
-0.017190250156791695
-1.1747406528114172e-05
-0.024875811127630536
1.51469185693007e-05
-0.0696568153656296
-0.0044407932925659265
-0.0009093853728001143
-0.0480828383082199
-0.0020362640767508234
-0.0159661150463559
-0.00033040813081920136
-0.039267591765098406
-0.0006057764310466893
-0.04760512273192671
-0.0065920933682973625
-0.0002848177891394499
-0.0004738219674216779
-0.05904141362679088
-0.002091815684848617
-0.04920749370691323
-0.00304495023154507
-0.08748250780542918
-0.004503710098413457
-0.022678035014400594
-0.00410733363857698
-0.08139625382410973
-0.05849586865991782
-0.031034484989524422
-0.04946448280422111
-0.02148327691078523
-0.0973463943720769
-0.027857769051758585
-0.07313555526514291
-0.014590179956855203
-0.023793571920623802
-0.020264853348741126
-3.418126468413669e-05
-0.030237159289416726
-0.0001340578743668933
-0.04116334512672838
-0.010763675446856703
-3.8951308341301934e-05
-0.0001667898210372739
-0.08897937242795076
-0.02835495351612852
-0.0192599110169844
-0.04864654617926208
-0.0867416225309989
-0.024832667038498374
-0.004259333439786547
-0.07339980271464468
-0.007741572397418377
-0.08808433234808934
-0.008117985505469832
-0.05044097366772841
-0.008669653772460406
-0.09741463350257405
-0.05366212763004189
-0.00910622410760553
-0.0757616771151787
-0.013415536803406482
-0.049859249910022246
-0.005457996235047549
-0.0004992693475519336
-0.0006293253107376176
-0.0503575654568801
-0.00044221581840783237
-0.034955952277091744
-0.0008450126141958532
-0.015199698101823507
-0.008683965444612692
-0.027290001182208336
-0.08302638937864623
-0.07756987847214936
-0.0031569073213131944
-0.043016989052434534
-0.004001236529806129
-0.01926903291529183
-0.05044402981745122
-0.015443644657762802
-0.0052124661556362
-0.08040992218736194
-0.0032788547085694842
-0.012700040731201085
-0.09795319485346317
-0.07365376654639527
-0.09603971038527961
-0.0553424242389523
-0.07141146000097857
-0.008798564227987091
-0.03150415234546459
-0.006897538971981827
-0.0381080379478461
-0.023907201389835018
-0.026454983228828808
-0.0013922486187286577
-0.0007283069014116447
-0.045160684406076616
-0.00250556640659017
-0.07051078663232578
-0.025523095839390865
-0.0010820063059324646
-0.001589660604439122
-0.009166768367868257
-0.00325210953637809
-0.07551618110550544
-0.008421869076380501
-0.024197004640295262
-0.011865929127258475
-0.03030605102909371
-0.04758404617217288
-0.061417658385882715
-0.030945730442206172
-0.0025348171312886227
-0.06174967655568305
-0.0040424034662295445
-0.006255695098226902
-0.0002171620306266414
-0.030267559276601092
-0.00033646622014372297
-0.00347113338787244
-0.0003309033125861146
-0.035667715565609465
-0.0007357211883414091
-0.031359046308887174
-0.0955437086028634
-0.03548419647211435
-0.04817974076193797
-0.054474711625697586
-0.0996194287268398
-0.049089127022560984
-0.0010100826700115183
-0.044504242910288955
-0.0016452728774928405
-0.08229766566697018
-0.009648138529582729
-0.05943493036681187
-0.010952412368585539
-0.05409490693314253
-0.00028742824098981697
-0.025315514570324788
-0.0006111680983043235
-0.06451498805585876
-0.024989930856923845
-0.09438042062258496
-0.06972589825152103
-0.037396483862034216
-0.04217958688321272
-0.09600232604920299
-0.03220821515863172
-0.03891173447153825
-0.06641935378911425
-0.04127008585911893
-0.04351019687960445
-0.016562274642495267
-0.020552151507991855
-0.030906923460392036
-0.08255425386854444
-0.09138741224954638
-0.010100744027668857
-7.578961535282072e-05
-0.029838296581766028
-0.00017294405668188102
-0.03885875910630055
-0.005259944605739937
-8.269513178871433e-05
-0.00020460748071792208
-0.041769860171553846
-0.050806103480667095
-0.05464784916171636
-0.011768807799422592
-0.018316141029152015
-0.023584732929201598
-0.005986417957564478
-0.08663946725735093
-0.012171895815241493
-0.08045571992861064
-0.015149029382133848
-0.003644231515176085
-0.0029866784791679497
-0.03645772382765214
-0.0020053503605088696
-0.0004193484376717539
-0.0003703561108700303
-0.0029853139407513764
-0.0005475700769561119
-0.03442841708844239
-0.00107665950308646
-0.012277745261680103
-0.005146455501488282
-0.08649494283056512
-0.014135985378990787
-0.029087143745274213
-0.009896427341561662
-0.09124962479934996
-0.005507046143913228
-0.018551366554390797
-0.013155104978787437
-0.07298735996918221
-0.01669787149456707
-0.06537464041996364
-0.016032453469304767
-0.0007558858430607726
-0.0011191696472708384
-0.08457164268873472
-0.032091226660643284
-0.0006453041069982734
-0.04507773536591241
-0.0011236976885609993
-0.025939736232842462
-0.003076425534218375
-0.06664018914123404
-0.005167316115954705
-0.014644891544726927
7.856381806747838e-06
-0.022993734959689774
-2.467113187093198e-05
-0.006864388580939895
-0.02677662384059634
-1.8102056240593258e-05
1.1225651854195523e-05
-0.08181834643033192
-0.05730512312159654
-0.005995593940881483
-0.06662781986216376
-0.008443276378451603
-0.07066882829078432
-0.01206009935671988
-0.0018331596042238066
-0.0018360725515982497
-0.090295843530302
-0.019046522553582572
-0.060006609712107466
-0.017877964814592757
-0.010949997412898385
-0.01972286568332018
-0.03926649360884752
-0.02702832778183945
-0.02303008200592005
-0.008838897641337889
-0.020778306123348106
-0.01036765670899385
-0.0020257675616694704
-0.062304339379133995
-0.004146598368284299
-0.08016848736987645
-0.04928339947745475
-0.06270352306555764
-0.0763519186550389
-0.07221354466823869
-0.018026644249043575
-0.022308277081124556
-0.03728232546726059
-0.005854074048072332
-0.07614336907459303
-0.009642873262167916
-0.013506113525699224
-0.00928827847269024
-0.03391250645728926
-0.10021026955124696
-0.048358353472250926
-0.07198313328780094
-0.006593451707407884
-0.060548888457687765
-0.008374302866320965
-0.00150344630650973
-0.00041341266115176077
-0.033899799602983505
-0.0010248514929589855
-0.07816074505878562
-0.0761509656420513
-0.07860431034559731
-0.03851185830825423
-0.03424143784307377
-0.019182974380865535
-0.04313557135191239
-0.09046721300535654
-0.0889384660060763
-0.08543386000668836
-0.003437578269772272
-0.027924496979357935
-0.003653331510388822
-0.0872148805643611
-0.004566958557527642
-0.040913725804297585
-0.005143531985369395
-0.051169708164559166
-0.002405345310399444
-0.05476772539145418
-0.003557213633252556
-0.023720855862967582
-0.0011784648799396888
-0.05245791965626707
-0.002030113405379093
-0.03195446373553752
-0.01346215383796183
-0.029193379782921258
-0.0965287878979688
-0.013917914008016589
-0.06564131565282733
-0.015518445737002692
-0.048230263703219194
-0.02607652266942092
-0.0037223903229818677
-0.0002169344078965848
-0.027285282902606383
-0.00032786597289691683
-0.03745326420440344
-0.03748854021882517
-0.07004498276684086
-0.015317419745034262
-0.0014650879925839904
-0.05448205493398798
-0.0024386041774166383
-0.01112716574543925
-0.048451568874301076
-0.010560285473312614
-0.03436163548316905
-0.00015575454709725118
-0.034088126046163986
-0.0003807175750867936
-0.034070470373956614
-0.002012847183643696
-0.00025125432296634113
-0.00028394454010818084
-0.0009470576755778925
-0.00036686157910158365
-0.03175725444993409
-0.001060252449253321
-0.006123806994154447
-0.0015023800596487894
-0.056854540990374104
-0.003519706028080768
-0.010700579400999544
3.655476460478692e-06
-0.013259462783053417
4.854183153788129e-06
-0.08119026828396983
-0.02709109676477562
-0.015347789925949304
-0.03915522839395167
-0.06139643736363921
-0.0006399042103120742
-0.029502966257077677
-0.0010998939237639594
-0.03127842215340896
-0.0023429015616010978
-0.00010335691674598759
-0.00018397872440645017
-0.008604558995873944
-0.017655793110432645
-0.028119115322646625
-0.09673722000200326
-0.052272224992273617
-0.06296919145908939
-0.006965487593237657
-0.0020021292623582498
-0.0015170143520962145
-0.09267292411399689
-0.09923307899009903
-0.07734725888840333
-0.024326137975119896
-0.0017916796441762133
-0.0022493023779416323
-0.05855442383117496
-0.0007096066814119596
-0.009046310636992842
-0.0009341826983075907
-0.08674949273455373
-0.08769975449796508
-0.018802479657126336
-0.0005418883301523401
-0.04391907437694388
-0.0009421704384107144
-0.0546816279284673
-0.0032029183260577436
-0.0014233409322288422
-0.058375414369180846
-0.004363778328465792
-0.033730528601438305
-0.0013990182301305567
-0.0005925705377725232
-0.0003634940581072751
-0.08478472129376857
-0.06457102839810894
-0.08170482220224458
-0.04510987327812233
-0.08385272815629115
-0.007567347917948789
-0.0821327976254313
-0.0038200448661632838
-0.012325342062398381
-0.07165325385590328
-0.04515741223192354
-0.01963716675776962
-0.029565060788383106
-0.09889522324989994
-0.016389136206764753
-0.022551114151195102
-0.00983153847568927
-2.4408456277435974e-05
-9.260256137012392e-06
-6.728639172737999e-05
-0.029011147677357803
-0.003778972195103338
-0.026194707934753567
-8.362126360556277e-05
-0.02384789914075676
-0.05371444713138781
-0.018690166798371675
-0.06267717770326323
-0.06317201899021709
-0.0172706418640568
-0.04123712306778752
-0.012325242832242756
-0.07858588009329587
-0.05506237603582434
-0.07503990359395506
-0.002015239380263758
-0.03603800989300139
-0.0027034883043257785
-0.0937359346967732
-0.0697877238026881
-0.003123789303965417
-0.06733748459269448
-0.0020038949425622813
-0.04912712957938541
-0.04353655708482464
-0.004192684356320662
-0.0028392271616383626
-0.00972571344545531
-0.025941226119577544
-0.006637684599161302
-0.0904322300265729
-0.003212746245061033
-0.06531638166492194
-0.0018259410916186215
-0.006724177470913228
-0.02801125467988935
5.898442429748631e-06
-0.023473102530935777
-6.1774062225847e-05
-0.0037144271240302277
-7.919146060020916e-05
-0.023090249392761872
-0.00014938238453464923
-0.022045565541211884
-0.022382238659642183
-0.06853525108037456
-0.00556762748549706
-6.027520675489227e-05
-0.024434882970376222
-0.00013060119198060559
-0.02998901870373625
-0.0025604022150539714
-5.417824904714239e-05
-0.00012599724111822088
-0.06523803344983768
-0.04494511901109847
-0.0013987940781462719
-0.04975800209483113
-0.0021957385926433186
-0.014152611825512487
-0.004231663743601796
-0.0792845896406454
-0.009908560149371663
-0.0670613483106209
-0.004252571059666772
-0.0558728927230956
-0.00569043589865886
-0.009569489204219286
-0.036928308188186015
-0.008416155136120752
-0.0543028191922097
-0.09036461946283893
-0.08995644789649307
-0.022608755388329283
-0.043464603170409226
-0.015147059944066805
-0.04071356250712705
-0.016968320203626916
-2.5731086585631068e-05
-0.00015258804504140764
-0.04170201358963561
-0.0037819612016576076
-0.06500634148662945
-0.005766763270754278
-0.08348621980622245
-0.005046953405919006
-0.046927734575739094
-0.005899951297348754
-0.03271896808047912
-0.08390735463674773
-0.06331698288248305
-0.03362877901304193
-0.032322239043542665
-0.09329806605787146
-0.0005829244986503503
-0.00011678534773023165
-0.01993296583077454
-0.0002573165272769018
-0.056480677161200595
-0.0894249296009419
-0.02895564428914264
-0.05237649743355023
-0.03345411663637404
-0.005055144102559385
1.6291762813594268e-06
-0.008529567400408139
-0.019214375447166036
-0.016548273993932567
6.397851038299622e-06
8.414930858450996e-06
2.5923536506407594e-06
-0.06931219095560634
-0.005392989099612492
-0.005888931240166283
-0.02797380710988553
-0.022546293937618183
-0.005252092751121491
-0.004747976888940778
-0.09934081256119538
-0.055471970465407035
-0.01557341950952498
-0.04985172001028041
-0.013366236384040277
-0.0419857804034913
-0.0967055044334131
-0.04292500102356416
-0.0023784090989650455
-0.057648212748070186
-0.0036378093828669292
-0.09364781072453944
-0.011509880153231568
-0.07573729373393714
-0.0157258805561588
-0.09726586665947413
-0.05147085677472197
-0.006716794255639743
-0.07144950487478255
-0.009934332956706564
-0.04878331911302669
-0.015020653319750577
-0.00011584848756261278
-0.00031779448031663476
-0.08122827103645008
-0.021954728990834012
-0.002580824701172249
-0.0028043290193847823
-0.07624424925598139
-0.032319647923135617
-0.06444546674570226
-0.09573127061092689
-0.02448598273715351
-0.014570882953245302
-0.02603437822648496
-0.07712987899665116
-0.042738551182924904
-0.018623052843000084
-0.01069900044725838
-0.031737314893935525
-0.007555123111932823
-0.041421596841674194
-0.007393718928872695
-0.020587874194414636
-0.0044684617111681426
-0.008842228182994393
-0.0753730819839831
-0.08642633548379113
-0.03373959324891294
-0.0038070211818334457
-0.00416762305721848
-0.02039644101773436
-0.00023393257665409054
-0.03810605816498448
-0.00046709375921940487
-0.049421449077287426
-0.008805404814920858
-0.00022532483812678819
-0.0004420506063002789
-0.05386338251413994
-0.025496827535737763
-0.07355414392762984
-0.01750817387147043
-0.006593681690965237
-0.01644230490228656
-0.02844211382251113
-0.0010341482519559476
-0.0002763770420569272
-0.0002168266171859337
-0.09297314024660377
-0.018563021884396715
-0.03207280563911739
-6.47431310998105e-05
-0.000186068979767704
-0.08009266720778017
-0.0067336664840196205
-0.05475466812132718
-0.007968014315768551
-0.06349121191846938
-0.031415312698796834
-0.004396535759469805
-0.07222272362803815
-0.007411932094237474
-0.08289839370520402
-0.004832941530039356
-0.01517572937552345
-0.003458250734899905
-0.0989880840742117
-0.04747490164760292
-0.09554747427861213
-0.060709751214449936
-0.00045823275838354215
-0.021508069656883455
-0.0008322729089198486
-0.021797240024793326
-0.007979067953077729
-0.05325722532471673
-0.009680605018860793
9.091852190875638e-07
-0.02351223647203548
-3.270558129429539e-05
-0.02372353345029329
-0.0035489793728756824
7.1958210896282295e-06
-1.9594791596566538e-05
-0.09142944618168712
-0.01708846793066516
-0.008629530819784771
-0.02477849980896495
-0.05935337322499456
-0.0008947229945116441
-0.03713583246293311
-0.001458890721383919
-0.02912044738097414
-0.0011424139882906738
-0.002323723504087558
-0.06330919893985527
-0.05684766401197977
-0.010606855085123948
-0.053780978332012265
-0.010902508895943823
-0.0010817451724296474
-0.00013559070362779272
-0.02293412767720915
-0.0002815353723148866
-0.08637895799574619
-0.0749060904564593
-0.07886462870085084
-0.019579335621591327
-0.0028111064363536224
-0.06647962766520216
-0.005015124400051251
-0.059417940177241974
-0.0010815405389168343
-0.0074131145090812435
-0.0011227827341483132
-0.03204292811996592
-7.423411144463327e-05
-0.031077191770145132
-0.000238099654852561
-0.04836296275587702
-0.040221826565344725
-0.0004083282515068169
-0.03906704536983832
-0.0007805707244792313
-0.09862807922825922
-0.029616818543565036
-0.005777672604134404
-0.010428800444162174
-0.049436462366354905
-0.00023865116675504094
-0.028819675209435368
-0.0005408130926521062
-0.010577385497890304
-0.006443441431041487
-0.022991293817591102
-0.03171139718212983
-0.01498371584410687
-0.0006892774867564723
-0.047847221334719595
-0.0013854706319397798
-0.018746539767664393
-0.0006418277214321821
-4.3515247714948224e-05
-6.540005373600144e-05
-0.008273375252824662
-0.01582228553223159
-0.05728847257515561
-0.01811986126283913
-0.030394554876657594
-0.08354016077618986
-0.034826080665885835
-0.04545582365911669
-0.009063489259671143
-0.014511560665324665
-0.0013927721184204755
-9.197502860832e-05
-0.02100095477181841
-0.00016220532432353
-0.02108094185086311
-0.02176333971214016
-0.009816707868131552
-0.025026684186087295
-0.047836132934186676
-0.021553468396974015
-0.0001145314596537591
-0.00033325017434390666
-0.027172200496472204
-0.09555924790496251
-0.008629866868751125
-0.002713450659654602
-0.0699448973683624
-0.006542413583592197
-0.07532306186043279
-0.06184013070961999
-0.029890268866846734
-0.07951975140442566
-0.015761427225819743
-0.061594791101361
-0.016024944338149914
-0.009088577665343697
-0.07188178476396852
-0.012514668753118642
-0.06080053229125913
-0.03354904255091933
-0.06870357623805591
-0.0005980262189474574
-0.00019963437125178606
-0.024115910009120733
-0.0005389586077349946
-0.01315825132492248
-0.004738473531112109
-0.08431648741347086
-0.012098366912578996
-0.0741267320830836
-0.05732118940271268
-0.028430839023684325