# vtk DataFile Version 1.0
2D Simulation C++
ASCII
DATASET UNSTRUCTURED_GRID
FIELD FieldData 1
NODES 1 2 int
2209 4256

POINTS 2209 double
0.0 0.0 0.0
0.0 1.0 0.0
1.0 1.0 0.0
1.0 0.0 0.0
0.0 0.02500000037252903 0.0
0.0 0.05000000074505806 0.0
0.0 0.07500000298023224 0.0
0.0 0.10000000149011612 0.0
0.0 0.125 0.0
0.0 0.15000000596046448 0.0
0.0 0.17499999701976776 0.0
0.0 0.20000000298023224 0.0
0.0 0.22499999403953552 0.0
0.0 0.25 0.0
0.0 0.2750000059604645 0.0
0.0 0.30000001192092896 0.0
0.0 0.32499998807907104 0.0
0.0 0.3499999940395355 0.0
0.0 0.375 0.0
0.0 0.4000000059604645 0.0
0.0 0.42500001192092896 0.0
0.0 0.44999998807907104 0.0
0.0 0.4749999940395355 0.0
0.0 0.5 0.0
0.0 0.5249999761581421 0.0
0.0 0.550000011920929 0.0
0.0 0.574999988079071 0.0
0.0 0.6000000238418579 0.0
0.0 0.625 0.0
0.0 0.6499999761581421 0.0
0.0 0.675000011920929 0.0
0.0 0.699999988079071 0.0
0.0 0.7250000238418579 0.0
0.0 0.75 0.0
0.0 0.7749999761581421 0.0
0.0 0.800000011920929 0.0
0.0 0.824999988079071 0.0
0.0 0.8500000238418579 0.0
0.0 0.875 0.0
0.0 0.8999999761581421 0.0
0.0 0.925000011920929 0.0
0.0 0.949999988079071 0.0
0.0 0.9750000238418579 0.0
0.02500000037252903 1.0 0.0
0.05000000074505806 1.0 0.0
0.07500000298023224 1.0 0.0
0.10000000149011612 1.0 0.0
0.125 1.0 0.0
0.15000000596046448 1.0 0.0
0.17499999701976776 1.0 0.0
0.20000000298023224 1.0 0.0
0.22499999403953552 1.0 0.0
0.25 1.0 0.0
0.2750000059604645 1.0 0.0
0.30000001192092896 1.0 0.0
0.32499998807907104 1.0 0.0
0.3499999940395355 1.0 0.0
0.375 1.0 0.0
0.4000000059604645 1.0 0.0
0.42500001192092896 1.0 0.0
0.44999998807907104 1.0 0.0
0.4749999940395355 1.0 0.0
0.5 1.0 0.0
0.5249999761581421 1.0 0.0
0.550000011920929 1.0 0.0
0.574999988079071 1.0 0.0
0.6000000238418579 1.0 0.0
0.625 1.0 0.0
0.6499999761581421 1.0 0.0
0.675000011920929 1.0 0.0
0.699999988079071 1.0 0.0
0.7250000238418579 1.0 0.0
0.75 1.0 0.0
0.7749999761581421 1.0 0.0
0.800000011920929 1.0 0.0
0.824999988079071 1.0 0.0
0.8500000238418579 1.0 0.0
0.875 1.0 0.0
0.8999999761581421 1.0 0.0
0.925000011920929 1.0 0.0
0.949999988079071 1.0 0.0
0.9750000238418579 1.0 0.0
1.0 0.9750000238418579 0.0
1.0 0.949999988079071 0.0
1.0 0.925000011920929 0.0
1.0 0.8999999761581421 0.0
1.0 0.875 0.0
1.0 0.8500000238418579 0.0
1.0 0.824999988079071 0.0
1.0 0.800000011920929 0.0
1.0 0.7749999761581421 0.0
1.0 0.75 0.0
1.0 0.7250000238418579 0.0
1.0 0.699999988079071 0.0
1.0 0.675000011920929 0.0
1.0 0.6499999761581421 0.0
1.0 0.625 0.0
1.0 0.6000000238418579 0.0
1.0 0.574999988079071 0.0
1.0 0.550000011920929 0.0
1.0 0.5249999761581421 0.0
1.0 0.5 0.0
1.0 0.4749999940395355 0.0
1.0 0.44999998807907104 0.0
1.0 0.42500001192092896 0.0
1.0 0.4000000059604645 0.0
1.0 0.375 0.0
1.0 0.3499999940395355 0.0
1.0 0.32499998807907104 0.0
1.0 0.30000001192092896 0.0
1.0 0.2750000059604645 0.0
1.0 0.25 0.0
1.0 0.22499999403953552 0.0
1.0 0.20000000298023224 0.0
1.0 0.17499999701976776 0.0
1.0 0.15000000596046448 0.0
1.0 0.125 0.0
1.0 0.10000000149011612 0.0
1.0 0.07500000298023224 0.0
1.0 0.05000000074505806 0.0
1.0 0.02500000037252903 0.0
0.9750000238418579 0.0 0.0
0.949999988079071 0.0 0.0
0.925000011920929 0.0 0.0
0.8999999761581421 0.0 0.0
0.875 0.0 0.0
0.8500000238418579 0.0 0.0
0.824999988079071 0.0 0.0
0.800000011920929 0.0 0.0
0.7749999761581421 0.0 0.0
0.75 0.0 0.0
0.7250000238418579 0.0 0.0
0.699999988079071 0.0 0.0
0.675000011920929 0.0 0.0
0.6499999761581421 0.0 0.0
0.625 0.0 0.0
0.6000000238418579 0.0 0.0
0.574999988079071 0.0 0.0
0.550000011920929 0.0 0.0
0.5249999761581421 0.0 0.0
0.5 0.0 0.0
0.4749999940395355 0.0 0.0
0.44999998807907104 0.0 0.0
0.42500001192092896 0.0 0.0
0.4000000059604645 0.0 0.0
0.375 0.0 0.0
0.3499999940395355 0.0 0.0
0.32499998807907104 0.0 0.0
0.30000001192092896 0.0 0.0
0.2750000059604645 0.0 0.0
0.25 0.0 0.0
0.22499999403953552 0.0 0.0
0.20000000298023224 0.0 0.0
0.17499999701976776 0.0 0.0
0.15000000596046448 0.0 0.0
0.125 0.0 0.0
0.10000000149011612 0.0 0.0
0.07500000298023224 0.0 0.0
0.05000000074505806 0.0 0.0
0.02500000037252903 0.0 0.0
0.506342285295496 0.5051559332990637 0.0
0.7125475109885847 0.7044812868853663 0.0
0.7044029443149505 0.295291391344343 0.0
0.2982002612776283 0.7084226208435752 0.0
0.29537227587517145 0.29833224165768174 0.0
0.7781869835187978 0.5060817029971286 0.0
0.5028881063464019 0.2235469795061762 0.0
0.4933167305535931 0.7804915342169899 0.0
0.22358087803848284 0.4992346849493749 0.0
0.8291178067798156 0.8226112273572838 0.0
0.8223023454950521 0.1728482147664862 0.0
0.1810310769752534 0.8304396184998186 0.0
0.17240030116728555 0.18130702800237086 0.0
0.644109950060733 0.5671727804426115 0.0
0.5645254182929877 0.3683959031783013 0.0
0.44310487623921746 0.6372584021533946 0.0
0.3630485316383758 0.43068561912323766 0.0
0.8466097301277538 0.6446515607702006 0.0
0.6457210883328018 0.15696679451096518 0.0
0.35145507531016107 0.8438071532872948 0.0
0.15611146512523644 0.3573232611888189 0.0
0.6490184734013089 0.8442164239803276 0.0
0.8442023839366816 0.3592688010742041 0.0
0.15863891136863506 0.6445668245829569 0.0
0.35955388752504286 0.15882414180001245 0.0
0.6751208422990405 0.4495545446297249 0.0
0.5848800074745 0.6790362214899758 0.0
0.44734429525684166 0.3229188138030337 0.0
0.3292186953361348 0.5588149200961205 0.0
0.884333902937862 0.5323729764287325 0.0
0.532283188267984 0.11425196140215851 0.0
0.4684727844719328 0.8877455856169372 0.0
0.11385150738234784 0.47102037912431133 0.0
0.8986988133826492 0.7430071699820734 0.0
0.7434272573290117 0.10381140678158189 0.0
0.260161913536328 0.8981493764819699 0.0
0.10446301865982455 0.2601806899537018 0.0
0.7457709640238344 0.8852183373254772 0.0
0.11913949995139105 0.7452376738410936 0.0
0.8836161508116817 0.2581353032873365 0.0
0.25758905711591984 0.11966692132527103 0.0
0.7434441504886456 0.6051486460601756 0.0
0.6102160023309425 0.2518891069060714 0.0
0.3965586871502757 0.7506829305475928 0.0
0.25470964478750197 0.39793225800048654 0.0
0.5245245729352851 0.594309683264588 0.0
0.8998820868379569 0.8873563357378477 0.0
0.8864104938361818 0.10246076416925583 0.0
0.1164788961304214 0.9005010899268231 0.0
0.10234985474400124 0.11669415268840266 0.0
0.7638773521714277 0.39253385621215525 0.0
0.23912970784920926 0.6125356642688801 0.0
0.3917134677742903 0.23813957173074782 0.0
0.8996844294198437 0.43820229961932866 0.0
0.4376302007813731 0.10344717951873218 0.0
0.5660510978460143 0.8972998269053124 0.0
0.10368492843414254 0.5655335246666144 0.0
0.7894352600716709 0.7444122075342459 0.0
0.7444708973933706 0.21275422581460945 0.0
0.2583668884093843 0.7905552064197372 0.0
0.21298278890376332 0.2589039120924722 0.0
0.7212346752571747 0.8028328572281396 0.0
0.7962945671138455 0.28471047791427545 0.0
0.20628402010877886 0.7188185746886915 0.0
0.2888420988917208 0.202768577091759 0.0
0.5954977561105463 0.4963718626112307 0.0
0.49171028526112026 0.41403146192722295 0.0
0.42611043960069245 0.5495136147770492 0.0
0.6333043719098489 0.7612492966843174 0.0
0.653378699534778 0.35544602939265546 0.0
0.49710630237524894 0.6952243310129945 0.0
0.3549752313627006 0.6449496247522346 0.0
0.350275311577325 0.35018086987694413 0.0
0.9170614954772409 0.8175252532211762 0.0
0.8171397631883862 0.08553421142262166 0.0
0.18598698684114626 0.9178410711357513 0.0
0.08557977557120924 0.18590492381673626 0.0
0.828911008748326 0.9121557918421712 0.0
0.09195024453298602 0.8295205571377746 0.0
0.9112395425625843 0.1734727392590475 0.0
0.17364584703991237 0.09167708280756819 0.0
0.6999065619138668 0.5188146108706629 0.0
0.6503610429983315 0.6505908728184171 0.0
0.5137483443332038 0.30529666232876 0.0
0.3008309614782406 0.48707711030818124 0.0
0.9196382399865404 0.6090446155492141 0.0
0.6142052558728841 0.08689543646647908 0.0
0.39751283204216015 0.922355790703767 0.0
0.08442066767690323 0.3887250912793626 0.0
0.664810903105703 0.9210487198750792 0.0
0.08198757565586712 0.6633463861604394 0.0
0.9207622517161418 0.3397042946726363 0.0
0.3398016898172121 0.08254358911835954 0.0
0.8238475746751308 0.43721302501587594 0.0
0.568276078687097 0.819143966217627 0.0
0.4364752712933736 0.17845254735958788 0.0
0.1791362004288371 0.5667719048316435 0.0
0.43451000353469144 0.46101179890025484 0.0
0.8207962054442801 0.5706777259857092 0.0
0.569565578028229 0.18255477531275546 0.0
0.43188146572584946 0.8207541466711918 0.0
0.1820750661030907 0.4339191193222243 0.0
0.772706688896484 0.6692477848836648 0.0
0.6699306837340432 0.22670095477280763 0.0
0.3327857489405738 0.7772342105211599 0.0
0.22707257012120785 0.3337912477238365 0.0
0.9303277997825696 0.6857072825012211 0.0
0.6863112276374778 0.07343665296543336 0.0
0.3141440503742817 0.9277660038381932 0.0
0.07542522234466814 0.31338093719215837 0.0
0.5625859982213877 0.7429324121243868 0.0
0.6032680843621449 0.4206934718505939 0.0
0.37585561681678614 0.501897013487397 0.0
0.7358569987311926 0.458826844381294 0.0
0.45614196226947085 0.2643872461124016 0.0
0.26752067727188594 0.5447662542754611 0.0
0.5885455413815844 0.616272024418137 0.0
0.4185145676503853 0.3894072405844256 0.0
0.5730062842052469 0.5438945159781667 0.0
0.5491544367958666 0.4505477338488289 0.0
0.9357787098321668 0.49754610453177384 0.0
0.4990342949695646 0.06756808315542995 0.0
0.5033850376396639 0.9340644420345536 0.0
0.06770586858037114 0.5046516110649681 0.0
0.8476391359828455 0.4991820370074173 0.0
0.4979723197209768 0.1551877793814346 0.0
0.5005615757009343 0.8444743222373639 0.0
0.15491803304832744 0.5050468121300198 0.0
0.8461080834240077 0.6990186280015591 0.0
0.6996712218221381 0.15696385288319495 0.0
0.3022251899928291 0.845717191943974 0.0
0.1570266250901832 0.3031195217503687 0.0
0.771497703933274 0.839706732957143 0.0
0.8378242234586523 0.23035774220518226 0.0
0.16551338432074397 0.7727806212966838 0.0
0.22965039853973232 0.16569268512169677 0.0
0.763692172244947 0.32839190703158944 0.0
0.2384573656497287 0.6762127073034394 0.0
0.3269244047133854 0.239378069363165 0.0
0.6405613257945258 0.30248464972426314 0.0
[...]
POINT_DATA 2209
SCALARS Psi double
LOOKUP_TABLE default
0.0
0.0
0.0
0.0
0.0
0.0
0.0
0.0
0.0
0.0
0.0
0.0
0.0
0.0
0.0
0.0
0.0
0.0
0.0
0.0
0.0
0.0
0.0
0.0
0.0
0.0
0.0
0.0
0.0
0.0
0.0
0.0
0.0
0.0
0.0
0.0
0.0
0.0
0.0
0.0
0.0
0.0
0.0
0.0
0.0
0.0
0.0
0.0
0.0
0.0
0.0
0.0
0.0
0.0
0.0
0.0
0.0
0.0
0.0
0.0
0.0
0.0
0.0
0.0
0.0
0.0
0.0
0.0
0.0
0.0
0.0
0.0
0.0
0.0
0.0
0.0
0.0
0.0
0.0
0.0
0.0
0.0
0.0
0.0
0.0
0.0
0.0
0.0
0.0
0.0
0.0
0.0
0.0
0.0
0.0
0.0
0.0
0.0
0.0
0.0
0.0
0.0
0.0
0.0
0.0
0.0
0.0
0.0
0.0
0.0
0.0
0.0
0.0
0.0
0.0
0.0
0.0
0.0
0.0
0.0
0.0
0.0
0.0
0.0
0.0
0.0
0.0
0.0
0.0
0.0
0.0
0.0
0.0
0.0
0.0
0.0
0.0
0.0
0.0
0.0
0.0
0.0
0.0
0.0
0.0
0.0
0.0
0.0
0.0
0.0
0.0
0.0
0.0
0.0
0.0
0.0
0.0
0.0
0.0
0.0
-0.02724466588251864
-0.05202898775772786
-0.007823339671221782
-0.03920030332169669
-0.007466439633173262
-0.016158184457597834
-0.006663349389731145
-0.06438158422321774
-0.013335434599642048
-0.05448081955951949
-0.001623594645826943
-0.03552989922452353
-0.0016090185179942471
-0.03290434129110949
-0.014995332658896429
-0.04178635483937868
-0.016948077313653026
-0.020646848962275192
-0.003227171198413824
-0.05897504329786642
-0.004315466605487281
-0.07095740807289931
-0.004649153828051936
-0.014782995787709344
-0.0031986411625473644
-0.01848640009317299
-0.0520726999858635
-0.011781831947654654
-0.02562480326229719
-0.0068143170467902196
-0.002147209923295611
-0.06221695888567682
-0.004340093780966764
-0.02053284619100531
-0.001131180147608112
-0.048864041730916026
-0.0013056548458990178
-0.06387929434124044
-0.014881204346543641
-0.0015900225640244263
-0.0013755403520020976
-0.030967166199038713
-0.007533897750120306
-0.0544960527849584
-0.010272994257789637
-0.03841772339981604
-0.03785825052079409
-0.00028507014126122164
-0.028053171613915715
-0.0002939867990460384
-0.010051895865523996
-0.02232129336447649
-0.006670313845307111
-0.0032708938657683537
-0.001736326800939548
-0.06237285940445384
-0.005458086054534454
-0.049850963328074205
-0.00384147154960833
-0.04407365414028416
-0.0039759800658537145
-0.0676007820980207
-0.00462321456427879
-0.027809801288590633
-0.0038842682437245585
-0.025814629299794653
-0.01860742933412351
-0.030087479015725397
-0.06538435378907886
-0.012478180423356931
-0.05279566461109722
-0.03694685782593333
-0.0114847434979323
-0.023438355472319178
-0.0004850838892055278
-0.03963267141134355
-0.0005097814065353424
-0.0512328434710394
-0.015220564668541556
-0.0004826397936108829
-0.0004755294457977715
-0.023741601048898053
-0.045817073489565256
-0.011080747354530351
-0.01789554895136977
-0.005549652747503207
-0.0012047773089137854
-0.05110760578962429
-0.0017474990426193683
-0.05478471155433567
-0.005571151070105444
-0.0012814158946301175
-0.0009543662405920178
-0.008332699969429334
-0.06995486833760382
-0.004429075031051933
-0.012930908718138496
-0.02160969216631893
-0.016878340405406474
-0.004663642165441741
-0.06410156720265235
-0.007687427273931927
-0.03789697777933821
-0.0056139153220762525
-0.0518081090265086
-0.006587210190799431
-0.007430939537401284
-0.0007592005863261605
-0.046036260102193506
-0.000983093318389465
-0.06218586169466188
-0.01844362282362713
-0.02312038383335194
-0.015817898721093657
-0.008562005780977286
-0.019694228605883563
-0.04176208192248429
-0.015653299008652467
-0.03171535588150408
-0.021832284417116918
-0.0019680710765770998
-0.0008506100664498891
-0.04784304042965735
-0.0020262843670199224
-0.009064717425262716
-0.0036508418650770392
-0.06778959664360604
-0.008152014975510895
-0.0285588024962362
-0.0027772084499853335
-0.05439398939343189
-0.003287392842738637
-0.06556758494524452
-0.0022842994884587596
-0.026189049335278554
-0.0020915353695262926
-0.007242307029337921
-0.02806990976990729
-0.0057949197221318915
-0.009671588118347844
-0.04551965476169249
-0.01056419820192937
-0.0509656450931093
-0.0013403042280399255
-0.003597367552002588
-0.0008645974836904233
-0.0336560194739817
-0.052081293220063676
-0.017824343603435433
-2.7651875315311166e-05
-0.02405020809519443
-2.2978780763714216e-05
-0.03369653218365013
-0.002244918085305299
-0.0006873580766740753
-0.04442947658321011
-0.0012873773576474205
-0.010740724666226886
-0.00042360080741318335
-0.03879637352341766
-0.0004622628179213544
-0.04438803327929955
-0.00614975491181233
-0.0004235987765365876
-0.00040227424869795344
-0.04162586275842761
-0.001963969911122118
-0.045515234271607835
-0.0020768951224746563
-0.06996517000319921
-0.0033641626269777197
-0.017237349108714436
-0.00269050266808562
-0.04214958915903563
-0.026208051284486406
-0.014795088629012649
-0.022625650501089792
-0.01088654268895991
-0.056574505927709365
-0.014366394910132918
-0.034500488607890414
-0.007898350502862122
-0.012914360425589968
-0.017678700396914743
-0.00013486100696190478
-0.0304389700338552
-0.00014118058925102737
-0.03946774510646099
-0.011122828965349638
-0.0001666773136579778
-0.00017576418976060008
-0.04718653670622712
-0.013639430661234474
-0.009993531530682696
-0.028144432833065888
-0.058579167653626606
-0.01207334155149684
-0.00284167685869673
-0.06281372198073482
-0.004537981964598846
-0.05627960698968103
-0.005350262895052857
-0.03855605210966849
-0.005122109252880729
-0.0644427053115669
-0.026604474394829748
-0.005516022245808499
-0.05842090491422264
-0.007517788733134485
-0.045657268742617024
-0.0047085483863992935
-0.0005717344781034951
-0.0005022802729517417
-0.042877919394657
-0.0006907939467913133
-0.03475165382809571
-0.0007032405999476588
-0.008232356005974696
-0.005076855256652907
-0.01736207114303383
-0.043736238758471796
-0.05701029132818652
-0.00271237691576281
-0.03760093905223666
-0.002654498559019997
-0.010149971780272625
-0.03213851229550681
-0.008344457220980647
-0.003388524941073442
-0.06669625367554284
-0.002142557674776628
-0.008748276615852042
-0.0700903890436801
-0.043828602948625686
-0.06972528918671701
-0.02620816311926881
-0.036448869758655626
-0.005583933971702719
-0.022312698706995867
-0.0042064473239720535
-0.017636664199480016
-0.011933007697355207
-0.013477369509388623
-0.0009143814591071382
-0.0005334803374282202
-0.04091350238264826
-0.0017424493204494984
-0.06077208221610409
-0.023832217671738907
-0.0012820092527990453
-0.0012125973502681302
-0.00485840878559853
-0.002101849026025213
-0.06393589785685982
-0.005219510339624037
-0.011844515680662316
-0.00661021049426807
-0.01792707343786454
-0.022020929799263813
-0.0279304407687761
-0.016977974744809776
-0.001983349313930185
-0.05616330439777547
-0.002533153952050862
-0.0036830208128469863
-0.00025051567910159547
-0.029218988109686584
-0.0002538397000679293
-0.0017658769155698075
-0.00029823017562006214
-0.033802734844337025
-0.0005053910799002104
-0.015079323160431082
-0.05499086805035048
-0.01646795043888577
-0.021615929884468765
-0.027910381971184395
-0.05979300198943934
-0.03720912587348729
-0.0011610518519943
-0.04307133130151052
-0.001219045298710516
-0.048276519619737245
-0.006020051568714628
-0.044581090597405726
-0.006260157723026188
-0.04888562130826594
-0.0005340907629414127
-0.025327631172103193
-0.0005354577209059976
-0.02939505520758803
-0.012506266090459184
-0.05901136544738059
-0.032677652712705695
-0.018914698769197633
-0.021905415704577946
-0.06674858881997513
-0.015195310959024249
-0.018367250811410465
-0.030022742598790442
-0.0188520345796926
-0.019671729821983907
-0.008738429503814331
-0.010497089482153764
-0.01689282971753166
-0.04003338074887042
-0.04752079046229345
-0.007534049477234462
-0.0001508973302337305
-0.029591803771361863
-0.00015937936335689762
-0.03679499521285402
-0.005361692489564646
-0.00019460398332025035
-0.00019888886673775143
-0.02032842855467822
-0.02395212710395414
-0.030473943168972954
-0.006673116962295334
-0.010072821862368938
-0.011332365254409624
-0.0037164146451001455
-0.06617779641916974
-0.007118167940964891
-0.06706004311334085
-0.011331225489655624
-0.0027292344276953857
-0.002009430434751703
-0.03340437436792611
-0.0015977561386066436
-0.0003755572761043961
-0.00029274450206253386
-0.0015276515473720202
-0.0004411849693525252
-0.032434446301963724
-0.0007057791374956622
-0.006517780602731952
-0.0031777244921463266
-0.06885002871079901
-0.00875863253211573
-0.014391693965281373
-0.005707899575121518
-0.07059138652214544
-0.0034092182717524143
-0.012189643718631606
-0.007465850645453899
-0.05125153332973054
-0.009088212086645142
-0.05862164243504191
-0.014862146337265065
-0.0009546993419541622
-0.0008832287456869964
-0.04813127414479117
-0.02305882877099298
-0.0007841235267476691
-0.044258373972257195
-0.0008490188147559346
-0.013267824793095644
-0.002227192926949757
-0.05920512569896904
-0.003098235533147653
-0.013302310866868196
-3.5546082906147884e-05
-0.023162616922931756
-3.8608552849340994e-05
-0.007231491506682837
-0.025780528996265553
-3.333680969625013e-05
-2.7484218807444466e-05
-0.059860825885702434
-0.031333565754459974
-0.004093875700126242
-0.05504260349964966
-0.004980642890705735
-0.06171454065883478
-0.009699309113593823
-0.0016369239148845923
-0.0013096961328813857
-0.049132569284380215
-0.010039555118740632
-0.038221883505933224
-0.009464272046876452
-0.0062234590202144375
-0.010973362253860298
-0.01825898936859306
-0.013151172166917956
-0.01119665488595358
-0.005131393529376532
-0.01223373060638821
-0.005169817465529727
-0.0014301008060711804
-0.056227427871825275
-0.0025385119788059432
-0.06552432336312045
-0.02385114090399684
-0.02910273252837127
-0.03573784932908146
-0.03687501860712866
-0.009503306199970297
-0.011731131498851103
-0.018327707162617085
-0.003799005563024498
-0.06224935439727863
-0.005594249044301363
-0.007689600230708103
-0.005403595007594046
-0.02235257046700147
-0.066318818749814
-0.021788490300008016
-0.04254592667158848
-0.004518597885283662
-0.048944524588564076
-0.004979115033324094
-0.0008080560176957433
-0.00031619026685665184
-0.03125867590441546
-0.0006907812387461162
-0.037277572975085625
-0.03780488993267123
-0.05013312850546314
-0.020772170149684053
-0.01595619980877031
-0.009913406399555473
-0.023977446955725915
-0.047314527219071194
-0.055435955368265136
-0.06823222195299863
-0.002849746329951907
-0.023004308167823243
-0.0024505485054682505
-0.06311312244602871
-0.003551549070326164
-0.03371891722654326
-0.0033010475776844446
-0.033308205228387684
-0.0021104900287469875
-0.0502247138394366
-0.002345270537754938
-0.014222259126649385
-0.001084810165318521
-0.05010967908193797
-0.001350371823391089
-0.014957880953451982
-0.007358034492225182
-0.01652563548744468
-0.05391931462685267
-0.007863432813725242
-0.045616450995326394
-0.008462854867540665
-0.021652644694248668
-0.012800940047725874
-0.0019858862978150565
-0.0002169475026286714
-0.025928203272821825
-0.00024436902413932284
-0.018003775610848018
-0.017306007459550306
-0.0393721941493394
-0.008051029966180477
-0.0011756695912422872
-0.0510154046736291
-0.001540420446478521
-0.006756485910551478
-0.03457662826344502
-0.006039044114070409
-0.02960914748606634
-0.00033539835242810584
-0.03437840735637104
-0.00034960252126596807
-0.031114443177571074
-0.0017531561762126784
-0.00027062938393343424
-0.00023805677984002605
-0.0005576410099917031
-0.0002793265921123246
-0.02927007990421291
-0.0007132083999766562
-0.0032074553896070854
-0.0010563655706686533
-0.051506802100790415
-0.0021991571118331883
-0.010971316691634373
8.594197456933241e-07
-0.012459383398988454
1.3384648436061887e-06
-0.04413530893105219
-0.013153471591207064
-0.00823130723050962
-0.02287207457217648
-0.05320189359690289
-0.0009020789574142291
-0.028816951502099498
-0.00088759692710334
-0.02926258376038461
-0.0022687435849705734
-0.00016824986051651268
-0.00016683620806109685
-0.00504684392287525
-0.010186832392709516
-0.013299245837810482
-0.05857072659742611
-0.023834131303886313
-0.05574892465706368
-0.005125055168176395
-0.0015444450339581535
-0.0010645041063712276
-0.06715644802657894
-0.06858634858040843
-0.06506636423838034
-0.021549961629276203
-0.0017971416845776694
-0.0016209429732916432
-0.05333346431262355
-0.0008185398688489263
-0.007947069953434218
-0.0007233768236831602
-0.06312940200994577
-0.04809921135610976
-0.012284336156941139
-0.0006102029652226131
-0.0429182890338132
-0.0006873870013368156
-0.024657159538389425
-0.0019385401512894023
-0.0009886937923430507
-0.05207318186267155
-0.0028792569645932665
-0.030756396550999685
-0.0010207055817511544
-0.00043431018683965137
-0.0002835012604258294
-0.04255006214411987
-0.03329430882405003
-0.04067133963252618
-0.020669374153156495
-0.05553079238604027
-0.004425496634277616
-0.06738902498854288
-0.002429287455220638
-0.008017652703525766
-0.03483716837745842
-0.020466926104428223
-0.010078296205465088
-0.01555274353124395
-0.06752668943282097
-0.00873046428005738
-0.012029120128320825
-0.008012205996871245
-8.418313223796781e-05
-7.106102775572818e-05
-7.72206945924955e-05
-0.027470997453346517
-0.004173851634093353
-0.02581787153369108
-8.798839597575757e-05
-0.011936393038499488
-0.032927106015192734
-0.009779172491447486
-0.029606319472589963
-0.028497194803503233
-0.009293449994195107
-0.0264708047387646
-0.006869722084450375
-0.04651777204385695
-0.027333265433508842
-0.05955478936510768
-0.001988902126610643
-0.032677127305529415
-0.0019148601737492938
-0.05889704299308028
-0.04859307499467472
-0.002669596079049682
-0.050511818195956834
-0.001953128919284523
-0.043554382342737966
-0.04018704409939136
-0.002750639892275754
-0.001985020172756304
-0.005881193294912302
-0.017618188728318187
-0.004020941000262835
-0.06112363606241771
-0.0021135507019762164
-0.057215621314312085
-0.001247404887394092
-0.004604625763470878
-0.026566536671757617
-7.44388969006791e-05
-0.023891606785833974
-8.129364734479787e-05
-0.0022693977172201646
-0.000113383297440393
-0.022079395233182832
-0.00012067859650373428
-0.011221123674240887
-0.011583002796503594
-0.041995296668386396
-0.003733310869458641
-0.00010929655199424623
-0.023427391378439185
-0.00011708859465106015
-0.02783844186801007
-0.0026247091527512438
-0.0001209152374572538
-0.00012721020715206392
-0.0295226290138222
-0.031155810414332706
-0.0014079600155856376
-0.047462374158898465
-0.0015391222651593354
-0.007096060772764837
-0.002701901111508434
-0.06592781602138151
-0.005976436595857662
-0.04249729191574419
-0.003277206671480194
-0.04814492608503586
-0.0035434753959128415
-0.006015733065155202
-0.02633841343146466
-0.004985854693583016
-0.02465756382131011
-0.07000249963733236
-0.07063266003405003
-0.01138921120952063
-0.02656919612787347
-0.008152732677135057
-0.038912685213771114
-0.017388328250521383
-0.00015694488568739306
-0.00016577249290865311
-0.022798828666839886
-0.0027886614318222867
-0.05701150135988628
-0.00350446856735484
-0.0571534574139911
-0.0038057419988202826
-0.03874821137499445
-0.003701089820311967
-0.015541770227482453
-0.04324895649879735
-0.030934687594775464
-0.01579197377494902
-0.016389825892423025
-0.0630554491522717
-0.00029498876970370674
-9.928344717392062e-05
-0.018635264977078302
-0.00018250682550205626
-0.0301831201947864
-0.06919841737003853
-0.014160116443149693
-0.024391089460164855
-0.01639101571496107
-0.005535039760134774
-3.0212961034315926e-06
-0.007977316620861494
-0.01833476138270881
-0.016519196602370705
-1.9201344333090822e-06
-2.3661157790269867e-06
-3.6328660921291338e-06
-0.03691438627181442
-0.003883565171536513
-0.004050659727648155
-0.021289143400754364
-0.016309891559194732
-0.0033241374153822746
-0.0030202050265457033
-0.0593456037715597
-0.024801408113889947
-0.008634760848934987
-0.03310573222922503
-0.00738143609373239
-0.019071455878829767
-0.06311955427650717
-0.02607655379464022
-0.002012185130818122
-0.05292400813140833
-0.0023510783340997036
-0.051725260427036256
-0.006662840030517505
-0.055208641836558554
-0.008625804991106007
-0.056482760711662715
-0.02651735783520072
-0.004377391469257278
-0.05796859749574178
-0.005726929118286181
-0.04590935723345998
-0.015370051256518457
-0.0003032015156222308
-0.0003074948149835265
-0.06753726856911858
-0.01819838624618802
-0.002281503190960097
-0.0019482323345342062
-0.035938783773209
-0.015251757542298662
-0.03618801080724642
-0.06676401223047242
-0.012152985000394719
-0.00786175594707204
-0.014271906871053688
-0.040319220542251594
-0.019544718703213636
-0.00968528185865753
-0.006052652786931253
-0.019713671825941016
-0.005115898558779379
-0.031240247177012095
-0.004496149804426289
-0.010022269385222911
-0.0028789222819200523
-0.00522041975143401
-0.05037047249606188
-0.06663857689835882
-0.02796562412580058
-0.0031051489127197993
-0.002753582236454903
-0.01529179853503123
-0.00036463902049657887
-0.03794319919355164
-0.0003882082556945316
-0.04619680386646994
-0.008564447856194986
-0.00039502281266922713
-0.0003844632393439546
-0.024116848339302506
-0.012536130596789626
-0.035460268696608455
-0.008774408722148214
-0.003989546224071141
-0.009906211603890224
-0.026070049821245642
-0.0008220021076843194
-0.00023428823130058082
-0.00017545267592406337
-0.0499188999753089
-0.015367366517244904
-0.03224039458394383
-0.0001726071732225679
-0.00018017650690090636
-0.05020872564504478
-0.004642175631674372
-0.043799330616286644
-0.004769012049546958
-0.02934253337614188
-0.015664720646353634
-0.003002514511305127
-0.06186792366906303
-0.00435785081807363
-0.06819078731051013
-0.003318416039095997
-0.010756951701422055
-0.002269157235521041
-0.06326766505135754
-0.02430635937782825
-0.0709779812584276
-0.0547742780704243
-0.0007093023133938566
-0.02119378648477407
-0.0006940036545370265
-0.01110195383442954
-0.003996933379717798
-0.04923722979296654
-0.008491109875249158
-4.01788942359042e-05
-0.023283956688618476
-4.2727682090549826e-05
-0.022384524316892772
-0.003816451047167769
-2.595883179286335e-05
-2.949551051784772e-05
-0.05045166829343335
-0.008920215872990656
-0.005034749733918497
-0.015323873218554412
-0.048604472173972485
-0.001113299038502633
-0.03602658177592428
-0.001122863566969068
-0.014002559120547669
-0.0008514950357429274
-0.0014624634357507757
-0.03136852805894575
-0.026557737075159873
-0.006505252586584786
-0.03922642983571173
-0.006214678754932532
-0.000528913275720979
-0.0001234404810812542
-0.022039192607729026
-0.00019980528659210302
-0.047001280575812876
-0.06375300641029509
-0.06463171037339244
-0.009792662861658856
-0.0019989383944441657
-0.05929268251901062
-0.0030295277978133156
-0.05348870060352264
-0.0010331176254111862
-0.0060142666571302615
-0.0008315657449008962
-0.028552572166355622
-0.000227636919994094
-0.03156197486596272
-0.00023832898471391127
-0.026958706813004225
-0.032837688359165416
-0.0006184069917618698
-0.03890984490351556
-0.0006423121637475263
-0.0674796241021967
-0.014266897484009607
-0.0036721336224460046
-0.006057735231699038
-0.044266795634199156
-0.00047683317070737393
-0.0290246152571513
-0.00048285105881926637
-0.0061675413671410904
-0.003920512774388142
-0.015206721442632505
-0.014864766585282288
-0.008811512207509992
-0.0006777343170489942
-0.04615475700964694
-0.0009459940544128477
-0.016645066508626523
-0.0006158131708272506
-6.372754162875157e-05
-6.237514071853468e-05
-0.004933154217696869
-0.009022329340683942
-0.02612232352530664
-0.00943893165905442
-0.01626415636601321
-0.04119503222277339
-0.016350368611378015
-0.02181584373887432
-0.005404686208555233
-0.008141347593809863
-0.0007031538711913168
-9.877827627933137e-05
-0.019642073041504837
-0.00012397783575688305
-0.01084669119274925
-0.010791531089212063
-0.005618467719845236
-0.01493563629404213
-0.044729851871230464
-0.021932237917486132
-0.00031688152151676855
-0.00032337703720568826
-0.013213412517612839
-0.07059437949950376
-0.0045029622385435375
-0.0018079448471732108
-0.06070685442385766
-0.004056262944703186
-0.03587614803267834
-0.031822078456791185
-0.014899254213747028
-0.06161097224324048
-0.008687249211810704
-0.041299578673317
-0.008646388778025689
-0.005592937536633002
-0.0551760641423826
-0.00704496096228412
-0.031607722375515616
-0.017317752191389417
-0.03993675107972988
-0.00033795189476986705
-0.0001600031478096882
-0.02204446689248588
-0.0003752531618747586