# vtk DataFile Version 1.0
2D Simulation C++
ASCII
DATASET UNSTRUCTURED_GRID
FIELD FieldData 1
NODES 1 2 int
2209 4256

POINTS 2209 double
0.0 0.0 0.0
0.0 1.0 0.0
1.0 1.0 0.0
1.0 0.0 0.0
0.0 0.02500000037252903 0.0
0.0 0.05000000074505806 0.0
0.0 0.07500000298023224 0.0
0.0 0.10000000149011612 0.0
0.0 0.125 0.0
0.0 0.15000000596046448 0.0
0.0 0.17499999701976776 0.0
0.0 0.20000000298023224 0.0
0.0 0.22499999403953552 0.0
0.0 0.25 0.0
0.0 0.2750000059604645 0.0
0.0 0.30000001192092896 0.0
0.0 0.32499998807907104 0.0
0.0 0.3499999940395355 0.0
0.0 0.375 0.0
0.0 0.4000000059604645 0.0
0.0 0.42500001192092896 0.0
0.0 0.44999998807907104 0.0
0.0 0.4749999940395355 0.0
0.0 0.5 0.0
0.0 0.5249999761581421 0.0
0.0 0.550000011920929 0.0
0.0 0.574999988079071 0.0
0.0 0.6000000238418579 0.0
0.0 0.625 0.0
0.0 0.6499999761581421 0.0
0.0 0.675000011920929 0.0
0.0 0.699999988079071 0.0
0.0 0.7250000238418579 0.0
0.0 0.75 0.0
0.0 0.7749999761581421 0.0
0.0 0.800000011920929 0.0
0.0 0.824999988079071 0.0
0.0 0.8500000238418579 0.0
0.0 0.875 0.0
0.0 0.8999999761581421 0.0
0.0 0.925000011920929 0.0
0.0 0.949999988079071 0.0
0.0 0.9750000238418579 0.0
0.02500000037252903 1.0 0.0
0.05000000074505806 1.0 0.0
0.07500000298023224 1.0 0.0
0.10000000149011612 1.0 0.0
0.125 1.0 0.0
0.15000000596046448 1.0 0.0
0.17499999701976776 1.0 0.0
0.20000000298023224 1.0 0.0
0.22499999403953552 1.0 0.0
0.25 1.0 0.0
0.2750000059604645 1.0 0.0
0.30000001192092896 1.0 0.0
0.32499998807907104 1.0 0.0
0.3499999940395355 1.0 0.0
0.375 1.0 0.0
0.4000000059604645 1.0 0.0
0.42500001192092896 1.0 0.0
0.44999998807907104 1.0 0.0
0.4749999940395355 1.0 0.0
0.5 1.0 0.0
0.5249999761581421 1.0 0.0
0.550000011920929 1.0 0.0
0.574999988079071 1.0 0.0
0.6000000238418579 1.0 0.0
0.625 1.0 0.0
0.6499999761581421 1.0 0.0
0.675000011920929 1.0 0.0
0.699999988079071 1.0 0.0
0.7250000238418579 1.0 0.0
0.75 1.0 0.0
0.7749999761581421 1.0 0.0
0.800000011920929 1.0 0.0
0.824999988079071 1.0 0.0
0.8500000238418579 1.0 0.0
0.875 1.0 0.0
0.8999999761581421 1.0 0.0
0.925000011920929 1.0 0.0
0.949999988079071 1.0 0.0
0.9750000238418579 1.0 0.0
1.0 0.9750000238418579 0.0
1.0 0.949999988079071 0.0
1.0 0.925000011920929 0.0
1.0 0.8999999761581421 0.0
1.0 0.875 0.0
1.0 0.8500000238418579 0.0
1.0 0.824999988079071 0.0
1.0 0.800000011920929 0.0
1.0 0.7749999761581421 0.0
1.0 0.75 0.0
1.0 0.7250000238418579 0.0
1.0 0.699999988079071 0.0
1.0 0.675000011920929 0.0
1.0 0.6499999761581421 0.0
1.0 0.625 0.0
1.0 0.6000000238418579 0.0
1.0 0.574999988079071 0.0
1.0 0.550000011920929 0.0
1.0 0.5249999761581421 0.0
1.0 0.5 0.0
1.0 0.4749999940395355 0.0
1.0 0.44999998807907104 0.0
1.0 0.42500001192092896 0.0
1.0 0.4000000059604645 0.0
1.0 0.375 0.0
1.0 0.3499999940395355 0.0
1.0 0.32499998807907104 0.0
1.0 0.30000001192092896 0.0
1.0 0.2750000059604645 0.0
1.0 0.25 0.0
1.0 0.22499999403953552 0.0
1.0 0.20000000298023224 0.0
1.0 0.17499999701976776 0.0
1.0 0.15000000596046448 0.0
1.0 0.125 0.0
1.0 0.10000000149011612 0.0
1.0 0.07500000298023224 0.0
1.0 0.05000000074505806 0.0
1.0 0.02500000037252903 0.0
0.9750000238418579 0.0 0.0
0.949999988079071 0.0 0.0
0.925000011920929 0.0 0.0
0.8999999761581421 0.0 0.0
0.875 0.0 0.0
0.8500000238418579 0.0 0.0
0.824999988079071 0.0 0.0
0.800000011920929 0.0 0.0
0.7749999761581421 0.0 0.0
0.75 0.0 0.0
0.7250000238418579 0.0 0.0
0.699999988079071 0.0 0.0
0.675000011920929 0.0 0.0
0.6499999761581421 0.0 0.0
0.625 0.0 0.0
0.6000000238418579 0.0 0.0
0.574999988079071 0.0 0.0
0.550000011920929 0.0 0.0
0.5249999761581421 0.0 0.0
0.5 0.0 0.0
0.4749999940395355 0.0 0.0
0.44999998807907104 0.0 0.0
0.42500001192092896 0.0 0.0
0.4000000059604645 0.0 0.0
0.375 0.0 0.0
0.3499999940395355 0.0 0.0
0.32499998807907104 0.0 0.0
0.30000001192092896 0.0 0.0
0.2750000059604645 0.0 0.0
0.25 0.0 0.0
0.22499999403953552 0.0 0.0
0.20000000298023224 0.0 0.0
0.17499999701976776 0.0 0.0
0.15000000596046448 0.0 0.0
0.125 0.0 0.0
0.10000000149011612 0.0 0.0
0.07500000298023224 0.0 0.0
0.05000000074505806 0.0 0.0
0.02500000037252903 0.0 0.0
0.5063109728986592 0.5053871299733452 0.0
0.712804139155056 0.7043530523023841 0.0
0.7038738375443109 0.2952762031415315 0.0
0.2982138348679145 0.7085609724018852 0.0
0.2954757081251908 0.29850414407380726 0.0
0.778364299196448 0.5054110493424374 0.0
0.5031977421071367 0.22346533280687358 0.0
0.49367098493653244 0.7809301155213835 0.0
0.2235864855179851 0.4990475140521323 0.0
0.8291700716055513 0.8226777503951 0.0
0.8220862495047798 0.172531326297481 0.0
0.18051059081514048 0.8302199309389713 0.0
0.1724805927541606 0.18065123757013168 0.0
0.6442718264848014 0.5672506434901846 0.0
0.5644331345945827 0.36843742611048413 0.0
0.4428290647419744 0.6374562402333431 0.0
0.3629789770685317 0.43120975153895724 0.0
0.8465640305066889 0.6444998094700021 0.0
0.6454097843729306 0.15618778263772234 0.0
0.35191700114117397 0.8439957212027104 0.0
0.15585380356122783 0.3575443918710072 0.0
0.6486934702900193 0.8444061761119641 0.0
0.8443560651721558 0.3586041753669521 0.0
0.15837089675641003 0.6446227634561348 0.0
0.3596414837906963 0.15867118699908025 0.0
0.6750431119195296 0.4489521562667337 0.0
0.5850116862320807 0.6791233163522766 0.0
0.44739935523789 0.3230649532683812 0.0
0.32917421023767646 0.5591322445222083 0.0
0.884307747700877 0.5319973768401176 0.0
0.5323808806301998 0.11412755240672084 0.0
0.46861695459057345 0.8882365362279466 0.0
0.1136933686857526 0.47083024134800383 0.0
0.898723526234049 0.7431019585317686 0.0
0.7431825022843662 0.10381634218970051 0.0
0.2598803763030255 0.8982464415477299 0.0
0.10497573532767311 0.2600980051268926 0.0
0.7451256664988576 0.8855932594300099 0.0
0.11853886412759397 0.7448637264200626 0.0
0.8845290439644007 0.25804455714666724 0.0
0.2578608364650112 0.11918957565119051 0.0
0.7433751827522858 0.6050069681420911 0.0
0.6102437182246269 0.25171618582232486 0.0
0.3963747651423294 0.7505259982034056 0.0
0.2547832776755386 0.39788820598223745 0.0
0.5244715621588488 0.5943989799991647 0.0
0.8993524404964699 0.8875362877640942 0.0
0.8867811124340339 0.10240591562572494 0.0
0.11628930683674328 0.900179345038878 0.0
0.10232513113005921 0.116207043038974 0.0
0.7633597354164794 0.39207696043977636 0.0
0.239128288424426 0.6128990003653649 0.0
0.391458696679724 0.2377823512281904 0.0
0.8996591696211055 0.43801475732018713 0.0
0.4379125919873283 0.10380992373098749 0.0
0.5658334497372817 0.897281211845598 0.0
0.10345544610565473 0.5654828552474214 0.0
0.7893031491030401 0.7438653617593682 0.0
0.7439044351706418 0.2126297307258212 0.0
0.2581005833526349 0.790081047555466 0.0
0.21253348168072958 0.2589153414956266 0.0
0.7207426877449945 0.8030512108638429 0.0
0.7966199970040879 0.2844243125669059 0.0
0.20625418677009502 0.7186682173297472 0.0
0.2886992601912006 0.20272586041841964 0.0
0.5952640654249632 0.49633247122966984 0.0
0.4915102253202137 0.4146352315177764 0.0
0.4256091955000995 0.5491876560338255 0.0
0.6330968380898723 0.7611376702774783 0.0
0.6533284002169818 0.3550305061790615 0.0
0.49707728185638034 0.695743366734706 0.0
0.35490349625993445 0.6451341633354402 0.0
0.34997432477511353 0.3505054551320627 0.0
0.9170918937264734 0.8171649049705091 0.0
0.817230045271314 0.08564698996677944 0.0
0.1857514456791457 0.9174247578802062 0.0
0.08506232535156548 0.18593053056454065 0.0
0.8286663184891943 0.9122692942263043 0.0
0.0914382269460084 0.8287651736067625 0.0
0.9119693036691657 0.17376251554338773 0.0
0.17381553823261528 0.09128435875675837 0.0
0.7002702016317822 0.5186108709468509 0.0
0.6503314666851318 0.6506933896439607 0.0
0.5134202943947997 0.3056043155596093 0.0
0.30081232219699605 0.4873801225269026 0.0
0.9198640252738626 0.6081526570356688 0.0
0.6143183561023585 0.0865326969710554 0.0
0.39761001126444 0.9220704122771953 0.0
0.0837786641400677 0.3889071715055991 0.0
0.6644596647454645 0.9212697217920328 0.0
0.08169691696356682 0.6635590720695205 0.0
0.9212804272688477 0.3397811781150962 0.0
0.3398829340495758 0.08192011580146921 0.0
0.8237852301347092 0.4367018720323092 0.0
0.5679377692473626 0.8197213932396746 0.0
0.43640969107589167 0.1785943371323521 0.0
0.17899202413956902 0.5668186166982742 0.0
0.4341917806143084 0.46137243549048396 0.0
0.8209780982356376 0.5703016194146157 0.0
0.5693498169495732 0.18261217301926072 0.0
0.4321448918850922 0.821254548180466 0.0
0.18205664725981252 0.43370356735103593 0.0
0.7729366095454652 0.6691870615791983 0.0
0.6696978127235288 0.22643708292614456 0.0
0.33282164206364784 0.7774424139840455 0.0
0.22673327274764976 0.3341458586051718 0.0
0.9304644390434623 0.6850461664327707 0.0
0.6862937526290309 0.0731910386998365 0.0
0.3142938168067184 0.928231346984578 0.0
0.07496798692500713 0.3136745815283527 0.0
0.563000190249404 0.743203762997699 0.0
0.6029963234769464 0.4207201398719067 0.0
0.37582331290507287 0.5018606644317211 0.0
0.73611600324538 0.45890578973005086 0.0
0.45635031650286384 0.264930934345667 0.0
0.26767622789173334 0.5452846849892279 0.0
0.5882646883434249 0.6165541470580096 0.0
0.41837366311456875 0.38962495235426586 0.0
0.5727692527932242 0.5440067412800894 0.0
0.5492989836270055 0.4505133936384588 0.0
0.9361922832244218 0.49734534250868806 0.0
0.49890610888052733 0.0674864033623763 0.0
0.5031289645334613 0.934177966065015 0.0
0.06693416487913553 0.5043155606741405 0.0
0.8476573890213192 0.4988953657282194 0.0
0.49773852087325865 0.15506612537082223 0.0
0.5004174666845598 0.8448581522182474 0.0
0.1545432500319438 0.5048510016307779 0.0
0.8460197323063715 0.6989441143949184 0.0
0.6994169700561427 0.15663852385602853 0.0
0.30250356119704014 0.845428190164791 0.0
0.15691520680623308 0.303543914465772 0.0
0.7715325816433568 0.8398430272145354 0.0
0.8375129171635858 0.23025604760185003 0.0
0.16511313068438474 0.7725071988610329 0.0
0.22984744039204405 0.16481902058000944 0.0
0.7638662890887151 0.3278298245954549 0.0
0.23867738931168614 0.6762649850123534 0.0
0.32672270612635734 0.2397199649014859 0.0
0.6405766846579731 0.3019997051469499 0.0
[...]
POINT_DATA 2209
SCALARS Psi double
LOOKUP_TABLE default
0.0
0.0
0.0
0.0
0.0
0.0
0.0
0.0
0.0
0.0
0.0
0.0
0.0
0.0
0.0
0.0
0.0
0.0
0.0
0.0
0.0
0.0
0.0
0.0
0.0
0.0
0.0
0.0
0.0
0.0
0.0
0.0
0.0
0.0
0.0
0.0
0.0
0.0
0.0
0.0
0.0
0.0
0.0
0.0
0.0
0.0
0.0
0.0
0.0
0.0
0.0
0.0
0.0
0.0
0.0
0.0
0.0
0.0
0.0
0.0
0.0
0.0
0.0
0.0
0.0
0.0
0.0
0.0
0.0
0.0
0.0
0.0
0.0
0.0
0.0
0.0
0.0
0.0
0.0
0.0
0.0
0.0
0.0
0.0
0.0
0.0
0.0
0.0
0.0
0.0
0.0
0.0
0.0
0.0
0.0
0.0
0.0
0.0
0.0
0.0
0.0
0.0
0.0
0.0
0.0
0.0
0.0
0.0
0.0
0.0
0.0
0.0
0.0
0.0
0.0
0.0
0.0
0.0
0.0
0.0
0.0
0.0
0.0
0.0
0.0
0.0
0.0
0.0
0.0
0.0
0.0
0.0
0.0
0.0
0.0
0.0
0.0
0.0
0.0
0.0
0.0
0.0
0.0
0.0
0.0
0.0
0.0
0.0
0.0
0.0
0.0
0.0
0.0
0.0
0.0
0.0
0.0
0.0
0.0
0.0
-0.023646372109937242
-0.04365161648955731
-0.007088020255237204
-0.035594642872716464
-0.006822092791551069
-0.014057649334251627
-0.006037146271640696
-0.057644412943467616
-0.0121316703295718
-0.04899927853567413
-0.0015843873838211156
-0.034201480866381896
-0.001559308660885252
-0.027908067508225397
-0.01319209304794319
-0.03650032700065095
-0.015096058766285482
-0.017399379061228293
-0.0029871557337545216
-0.055502148476075715
-0.004031711813376247
-0.06446908033125637
-0.004340579644209056
-0.013713048309059948
-0.002991270437466059
-0.01606635766919268
-0.04445947866122461
-0.010492964027480392
-0.022818945578300356
-0.006126889675396649
-0.0020086642113394775
-0.058930534207898976
-0.0040694204210246256
-0.017501058400472183
-0.0011064644680056812
-0.04760195633514478
-0.001279821475121152
-0.05969930344199057
-0.014100233914468734
-0.0015436927344498826
-0.0013328945389965345
-0.025995583271722363
-0.006786430263356384
-0.04901515219944135
-0.009320217880018324
-0.03301493496363805
-0.03642511494722623
-0.00030059124019981697
-0.027935711009394265
-0.0003061163943903149
-0.009051735257526486
-0.020344278902870067
-0.006052454318343472
-0.003098052977607969
-0.0016591265370741067
-0.05903982720438173
-0.005126160048315168
-0.04225656140774296
-0.0035912529597259294
-0.04120694387805378
-0.003716662353917789
-0.059510252616070985
-0.004305299000502537
-0.02582023834448607
-0.0036266638262339103
-0.022243856958170015
-0.01633269415638108
-0.026272514320746045
-0.05661527129160737
-0.01100820892125213
-0.04601930005370315
-0.03281402187885264
-0.010314018034209794
-0.021108408438964815
-0.0004909527194760256
-0.03925859522730794
-0.0005110145565573797
-0.04934480274526121
-0.014922568669205992
-0.0004955592861832195
-0.0004829913827431657
-0.02030981557758917
-0.03858928964845425
-0.009887668540303436
-0.016019396453476848
-0.004848967548716446
-0.001134326373597426
-0.04972831350198944
-0.0016576458140685447
-0.052354709062206614
-0.00527963870459326
-0.0012490459119534657
-0.000912596389059253
-0.007566436085411882
-0.06311749458792719
-0.004086423019991244
-0.011896984472066439
-0.018986039944529003
-0.014535675444231145
-0.004279380473417563
-0.059024309241309185
-0.007090434101642075
-0.03148309701731043
-0.005127327218516921
-0.047651158289980684
-0.006059012836462639
-0.006275962376750017
-0.0007341229758847209
-0.04494161797938506
-0.0009480413950506808
-0.054162814636517
-0.01608382459735087
-0.020416170359939437
-0.013875491156922675
-0.007725216038596806
-0.017805060351674663
-0.03554931105206007
-0.013845333437230909
-0.027199089904017947
-0.0189665404092745
-0.001850734390917273
-0.0008128925275278069
-0.04621283598116963
-0.001911541912973207
-0.008149590503397836
-0.003375134026115512
-0.06256256958244505
-0.007546344409025882
-0.024013617711875525
-0.0026020095397224327
-0.051577495188962215
-0.0031189902996314072
-0.05936323070165152
-0.0022089518656396045
-0.024848467343428965
-0.001990031526286584
-0.006576334336234232
-0.025758598632580336
-0.005323158614636008
-0.008630384346861551
-0.04071779887327968
-0.009543994294701735
-0.049021059001583905
-0.0013003941707085953
-0.0033849432276425043
-0.0008251604154332537
-0.029646591533868182
-0.04599225786534125
-0.017940235292390496
-3.1798187774899826e-05
-0.023999347692434454
-2.854431186891603e-05
-0.029180659318395065
-0.002091288145828217
-0.0006489429554413974
-0.04325132130363844
-0.0012201925127228825
-0.009417033193259004
-0.0004214465895455662
-0.0383689832457521
-0.0004608508238917432
-0.043059023187832404
-0.005976176392169094
-0.0004341769946174388
-0.0003995468893081663
-0.036079356286753246
-0.00188124550417456
-0.043761131833058936
-0.0019955769967070335
-0.06376752607262742
-0.0031860341455924998
-0.016108701598361013
-0.0025280041582158544
-0.035185569381098035
-0.022451567253568172
-0.013076748629309635
-0.019362388945321423
-0.009697277832777958
-0.04799380082316102
-0.012884697136945714
-0.029109216641562106
-0.00710806637566152
-0.011687989931639024
-0.016861519558045636
-0.00014395183277305035
-0.03053749873436717
-0.00014922147939390462
-0.03860914135332123
-0.011098535087611558
-0.00017921409706476735
-0.00018347638497445064
-0.04054210290051912
-0.012033811579031856
-0.008983204265252748
-0.025211062965405723
-0.05233289353667849
-0.010452207113205391
-0.002647487291438101
-0.059249702584319504
-0.0042392249162955895
-0.04771125833814357
-0.004936006487774287
-0.03553151702998161
-0.004742705560590062
-0.05552958348098989
-0.022232872408385583
-0.005022374265204622
-0.05362765834940213
-0.006909689707283582
-0.04416613848902024
-0.004562087718754668
-0.000576947004596731
-0.0004901539256238338
-0.03975166490848865
-0.0006973860236694951
-0.03415343637880204
-0.0007058653916840257
-0.007464768242922577
-0.0046544711384571315
-0.015909976235109785
-0.03779268172600134
-0.049947378614766905
-0.0025850384249525554
-0.03566181945282922
-0.002527278614316395
-0.009066768310897692
-0.02898875284859111
-0.0075591258961101625
-0.0032060635327035283
-0.06219709790832829
-0.0020145491680572634
-0.00817988638792239
-0.06229194297011233
-0.03871629467816433
-0.06160794705753143
-0.022835714987182683
-0.03171072879500123
-0.0051422427470646185
-0.02069107027690205
-0.0038766708304180677
-0.01548935480801808
-0.010571710487627945
-0.012055962393985816
-0.0009062088011702437
-0.0005151336590882801
-0.03995264211975456
-0.0016585549625918465
-0.05640614571636109
-0.022886544743096125
-0.0012675477298308166
-0.0011839895011836327
-0.004468584891309649
-0.001978080918416822
-0.06028239806127451
-0.004888656565406304
-0.010553490030925042
-0.006005034944155978
-0.016337051033344607
-0.019250130415147983
-0.02410757064449977
-0.014386100471102902
-0.001869555249458695
-0.05387102204074778
-0.0023969059904526955
-0.0031553315213444836
-0.0002471225903136311
-0.028746533718342425
-0.0002546386061483478
-0.001526414999206011
-0.0002890656360709919
-0.03337444743265816
-0.0004895283735100278
-0.013334430186696809
-0.04745259637347677
-0.01439548187884213
-0.018662249729300313
-0.02461346993667345
-0.05131028324873025
-0.03294216627325932
-0.0011376585401474157
-0.04200588059065936
-0.001191655476011477
-0.04039973943001499
-0.005513458954508517
-0.04082476016401129
-0.005765727727800502
-0.046471475192753374
-0.0005510540419023872
-0.024829082172190584
-0.0005404485283377143
-0.024960107720529152
-0.011134415395473605
-0.05171973550921402
-0.028145547243231536
-0.01681822195126967
-0.019515508068330426
-0.059481067225518026
-0.013336803918137815
-0.0161987494258855
-0.025697676170237806
-0.01631304553916516
-0.01702808339573766
-0.007845505637419722
-0.009376964797647484
-0.015220012569276334
-0.03381846296471171
-0.040219252369815515
-0.0068164280486963675
-0.00015605033010331783
-0.029591319752690592
-0.00016659927438439346
-0.0361757128215532
-0.005237420756270564
-0.0002064666187396069
-0.00020349176388932382
-0.01797442031365668
-0.020274793074089015
-0.027093711459728935
-0.006051325334856043
-0.009189432830064419
-0.01000784672087191
-0.003435475475837787
-0.06052926802055791
-0.006594703240324746
-0.06236461150093504
-0.010548710825786775
-0.002599170679146221
-0.0018967862296190691
-0.032960650361885994
-0.0015279082661479428
-0.0003795479993286814
-0.0002828975290149677
-0.0013611151892605447
-0.0004174069326666257
-0.03189001661896386
-0.000673687476711539
-0.005976973580966217
-0.0029622409223052154
-0.06353090788405964
-0.008129675561919231
-0.01280245177590433
-0.005280897149349614
-0.06432895375957681
-0.0031794601116458274
-0.011213872881529566
-0.0067257157012951055
-0.04634470803214352
-0.0082595541181986
-0.05553023448616829
-0.014265958881753108
-0.0009565942605919266
-0.0008685418728962449
-0.04202242257775958
-0.020420708904303007
-0.0007774489545110231
-0.04352985948730396
-0.0008411312004332108
-0.011321784258460045
-0.002091375843583091
-0.056445706035439615
-0.00293427554810881
-0.013022590487286477
-4.142761516374496e-05
-0.023209841423755137
-4.388182545161986e-05
-0.007358956792994662
-0.02548442882515043
-3.704986936469393e-05
-3.352774644652816e-05
-0.0543064320979008
-0.02613023826348107
-0.003761911856429482
-0.05137666758223289
-0.00463017606677377
-0.05819512155523597
-0.009196738675873855
-0.0015818887025241153
-0.0012568895619349421
-0.04118045606723072
-0.00895852839074535
-0.034362505717404276
-0.008579918014982278
-0.0056639932067398535
-0.010022831502533011
-0.015787972579398984
-0.011644951675341237
-0.009975136113822003
-0.004695164607990789
-0.011243866249558532
-0.004620332921961563
-0.0013414887550832612
-0.0540247431352631
-0.0024107871917845624
-0.06105478719177398
-0.020957183489311533
-0.0246182472890269
-0.03046506163769199
-0.030720773615155683
-0.008491679542041844
-0.010565625990214532
-0.01553598769058469
-0.0035053065860993385
-0.05795392673081834
-0.005196360717570684
-0.006960430037968737
-0.0049500967018937725
-0.020470726053024843
-0.05799070157261671
-0.018903860860386153
-0.03563350763053066
-0.00417240778803132
-0.045386273483802066
-0.0046233715075872026
-0.0007664097948396724
-0.0003057840369960371
-0.030543444260774506
-0.0006633977829511127
-0.03195318267972613
-0.032661928212683745
-0.04456563158393021
-0.01860573084883811
-0.013965568208327681
-0.008884718415851135
-0.021496507204155024
-0.040366765366269104
-0.04880632538142274
-0.06180615129276517
-0.002728579750282326
-0.021612052693654297
-0.002333102271446826
-0.055161448727183794
-0.003349651786470098
-0.03160398997209644
-0.003099674990723495
-0.02820040573092992
-0.00200669550266896
-0.048099348139106296
-0.0022469846084951497
-0.012131800875511545
-0.0010436928795612295
-0.04876157778104484
-0.0013191345065280797
-0.013140788061469746
-0.006647752063893268
-0.015026658233975646
-0.04578876954449033
-0.007091622356361308
-0.0413095125346414
-0.007710059414240585
-0.01867365340110115
-0.01135332386137895
-0.0016924193847455624
-0.00021577656910114638
-0.025553843448661694
-0.00023452463215362324
-0.01592621334673794
-0.015150316861987366
-0.034669295918502686
-0.006831706009228471
-0.0011210013088735742
-0.04966741389924074
-0.0014775484411447717
-0.006155257427762586
-0.03165752719421344
-0.005554991480436308
-0.027721829360303853
-0.00034744695331076264
-0.03421120664781257
-0.0003602836957762184
-0.03059642798465816
-0.001691744246705395
-0.0002774132501695766
-0.0002287323767805184
-0.0005384228303819863
-0.0002715322818744543
-0.02868130754471618
-0.0006825635955542465
-0.002965785237565499
-0.001000693401215398
-0.04965514734477726
-0.0020879417327384314
-0.01100805757387964
1.7398754003872474e-07
-0.012446743738256537
6.399219613964152e-07
-0.036891290304727924
-0.011632269800780085
-0.007422626199132799
-0.02073072908193142
-0.049675258528571346
-0.0009048496610579264
-0.02802115807629708
-0.0008820162306370938
-0.02844155795183575
-0.0021950521388750806
-0.00017697482884807493
-0.0001685109861930774
-0.004613413904433949
-0.009372747922889446
-0.011689769852990285
-0.04966476273695936
-0.020692471941881257
-0.05322084055080968
-0.004796829602623067
-0.0014945809781144992
-0.0010072293099371598
-0.06058246070718466
-0.06010888789346099
-0.059958999652083136
-0.02039663277649737
-0.001758005959566946
-0.001567657782561946
-0.05096366579212298
-0.0008204051636249907
-0.007667387053177164
-0.0007044446006613573
-0.05714435735390063
-0.041633609603808734
-0.010674918739141406
-0.0005999753792321617
-0.04213385687464817
-0.0006792129888555544
-0.021293727925222498
-0.0018438356057958484
-0.0009477035286806789
-0.050109355325963896
-0.0027272337105986514
-0.029907967793186812
-0.0009742274970115326
-0.00042706012319867543
-0.00026958721657278093
-0.036466327230231965
-0.029115904876760218
-0.034110438946753134
-0.018047564969360514
-0.04953207930203448
-0.004128505515764548
-0.06272012885214014
-0.00228747934441486
-0.007488629592442652
-0.02916207199940907
-0.017848264069243825
-0.009005142953676342
-0.013977716642101552
-0.0596333175815207
-0.007844580483437622
-0.01085126690400813
-0.007329107978703133
-8.856840643233542e-05
-7.792803575994805e-05
-8.244991700962817e-05
-0.027264557820726985
-0.004102293510684703
-0.025693205500337442
-9.488395117345072e-05
-0.010600885203584057
-0.029600906721854357
-0.008819180054858267
-0.02567221551704859
-0.024520090654196112
-0.008337178071013071
-0.02408549283324023
-0.006243754979132694
-0.04089828187521163
-0.02398678105019327
-0.0534334595706452
-0.0019198418478840436
-0.031291487939927504
-0.0018461025753064232
-0.05006698606621056
-0.04179648741593041
-0.0025352425059659146
-0.04444275771862998
-0.0018867198607736338
-0.04134517845754828
-0.03858156703191701
-0.002616253038055553
-0.0019035632452928575
-0.0054176892763783836
-0.01628561804924107
-0.003737027332706811
-0.05451384072150796
-0.0020167406662137334
-0.0546291136160136
-0.0011970790989586748
-0.004317825969188989
-0.02598672290768139
-8.491434130113669e-05
-0.02400369678414547
-8.895804643690251e-05
-0.001935399613436395
-0.00011169534924392144
-0.021694058715203406
-0.0001216004387355328
-0.009955137476754148
-0.010383199737322692
-0.037350148484637455
-0.003293717554672717
-0.00010949989414547007
-0.023539701901767088
-0.00011793847652908306
-0.027541972069578046
-0.002606699261451083
-0.00012808371028046064
-0.00013125399518162077
-0.025139133176910963
-0.027044150371042464
-0.001365731770343705
-0.04604590120514686
-0.0014983860733027174
-0.006431822656799135
-0.0025317257689693603
-0.06169219399907154
-0.005551645726481771
-0.035938312749301794
-0.0030735152124068696
-0.045361000770618824
-0.0033421069677086325
-0.0055175613571634904
-0.024280982853688484
-0.004614855312830095
-0.021065277712830423
-0.06294720192271704
-0.0641485369745816
-0.010137862131430083
-0.024012405055780412
-0.0073698691188073704
-0.03807656087625269
-0.017485460272179842
-0.00017149107579727039
-0.00017551594331488275
-0.01912243769766832
-0.002595648050862835
-0.05406611391568397
-0.003297722767705206
-0.04909519248081306
-0.0035673459880667165
-0.03618989790157638
-0.003477969239513953
-0.013699971153863498
-0.03721514054401768
-0.026897412345793514
-0.013890825346340572
-0.014638298616235952
-0.05429734391108709
-0.00027779673547107393
-9.54887485972703e-05
-0.018201390324173606
-0.00017845664975713824
-0.026670751157825662
-0.06335747699579103
-0.012555729851196705
-0.021300139416924824
-0.014523233621366859
-0.00555200845613294
-4.184057280856772e-06
-0.008006394649566267
-0.018461551339067604
-0.0166906947495369
-3.352694540643626e-06
-4.090860109315739e-06
-5.351039812142127e-06
-0.03230411556197147
-0.0036541729322778897
-0.003793327719987852
-0.019948914385409692
-0.015189672290073982
-0.003109333848244968
-0.0028341577460158592
-0.050706105561986174
-0.02132002251851794
-0.007779714607020544
-0.030094004331265783
-0.006721240254668547
-0.01654595946744027
-0.055541768733234693
-0.022082358665488133
-0.001911119563261805
-0.050792756177216174
-0.002258196913816693
-0.04436576914822497
-0.0060489059785886565
-0.05006706452806202
-0.007895322725582087
-0.04853546499851095
-0.022115083429983633
-0.004018606167343495
-0.05390410910685061
-0.005310368645099676
-0.04461934164579905
-0.015104520498544181
-0.0003180305825787985
-0.0003150322596496291
-0.06214349289216836
-0.017179053721605452
-0.0021963312410177393
-0.0018597736873573157
-0.030326970226609854
-0.013338184517832502
-0.03198242342519709
-0.05814405795050443
-0.010765383041736696
-0.007088498119662727
-0.012918048736546377
-0.035041877767802064
-0.016849620540636243
-0.008727361177402063
-0.005510684077734152
-0.018013951860403925
-0.004728522251762073
-0.02892237039134174
-0.004174962236169895
-0.008777997916578085
-0.0026867805160165487
-0.004863552894379913
-0.04509250108057337
-0.059520183953712905
-0.02628505100831928
-0.0029506906458314427
-0.0026124639571985906
-0.01362126134423937
-0.00037149430298272435
-0.0376966233706324
-0.0003898395425464478
-0.04494832878873381
-0.008313627998390043
-0.00040775502792555915
-0.00038517703857548585
-0.020667170380541472
-0.011095151315044361
-0.030612199178088342
-0.007902523509308212
-0.00367470699450139
-0.009153752744536149
-0.025735904172694703
-0.0007999386537023107
-0.0002377559643190088
-0.00016985544177515512
-0.04212396076278437
-0.014404769303373898
-0.03223947522888257
-0.0001829583350276792
-0.0001899842586613666
-0.04238151271687175
-0.00429606822587674
-0.0406371587020448
-0.00442107037412523
-0.025321378380426533
-0.013340305121139788
-0.002786677530150556
-0.058314344973832186
-0.0040808160229970376
-0.06318158627445473
-0.0031559532723858556
-0.0100451037694935
-0.0021442973540518567
-0.054278175369737044
-0.021559708234582444
-0.06349881903060678
-0.05191997658296885
-0.0007227838621524404
-0.020535120271853738
-0.0006948720580704017
-0.009908934551434708
-0.0035730753586671
-0.047889293895199594
-0.008061213875384901
-4.581444724360155e-05
-0.023352126665116005
-4.77206687387582e-05
-0.02216884074841492
-0.0038163104161948597
-3.058269472869615e-05
-3.2679498410565556e-05
-0.043523681737778326
-0.00805548923699835
-0.004634716018085216
-0.014065088882006879
-0.04433576607661033
-0.0011096694689742988
-0.03508418449209639
-0.00111347311203345
-0.012308166510470809
-0.000806889482289141
-0.0013985032597741169
-0.026186880822644216
-0.022452960722406604
-0.0059377140400845504
-0.03586972796368588
-0.005733620522745929
-0.00048133607917052724
-0.00012401704832060693
-0.02171744066070737
-0.00019790343931957627
-0.03930963104564296
-0.06006479292965696
-0.06024673850359705
-0.00845073533431622
-0.001874462424927846
-0.05672951799937106
-0.0028465447383399754
-0.05115452482170793
-0.0010102077212386393
-0.005793460793650592
-0.0008032751464343501
-0.027203468422933683
-0.00023910865440813229
-0.03149850847671538
-0.00024710462520985795
-0.024067991011803277
-0.030027363039339394
-0.0006242093173055777
-0.038388186366195856
-0.0006406733916618934
-0.058759390042075414
-0.0123246582748996
-0.00339251426478724
-0.005605456402278177
-0.04204653683047993
-0.0004915189166314975
-0.028640266958083246
-0.0004943516415725361
-0.005668811361640462
-0.003632313867982538
-0.014046921858142247
-0.012930995353748892
-0.0074916506665044505
-0.0006619188921792112
-0.04512819645398716
-0.0009230695024217355
-0.016496531628510943
-0.0006056825328525846
-6.839845003901647e-05
-6.242403747782839e-05
-0.004512843196663673
-0.008309832413289914
-0.02259964530557938
-0.00844972682813908
-0.01468741550963595
-0.034705511681624904
-0.014399023725656612
-0.018443106891467262
-0.004943979941145535
-0.0074802629807456415
-0.0006115970793362238
-9.479191511026031e-05
-0.019450893738168287
-0.00012064468430170591
-0.009705146116993624
-0.009672040073762486
-0.005132773173615495
-0.013685022822232055
-0.04310454266724235
-0.02167369476345343
-0.00033178447818709594
-0.0003329845958680609
-0.011666442238439058
-0.06347546875042868
-0.004149249984023044
-0.0016891426343462474
-0.0577341438870199
-0.003811660117753209
-0.0308145344785234
-0.026543138629949448
-0.013290387921507964
-0.056601933112446885
-0.007817412818290204
-0.03724771463510048
-0.007849587236523676
-0.005094690667993534
-0.05069708126994239
-0.006462899013874465
-0.027719484554105098
-0.015470803543290187
-0.03530734238519979
-0.0003230503943481919
-0.00015683831307288982