# vtk DataFile Version 1.0
2D Simulation C++
ASCII
DATASET UNSTRUCTURED_GRID
FIELD FieldData 1
NODES 1 2 int
2209 4256

POINTS 2209 double
0.0 0.0 0.0
0.0 1.0 0.0
1.0 1.0 0.0
1.0 0.0 0.0
0.0 0.02500000037252903 0.0
0.0 0.05000000074505806 0.0
0.0 0.07500000298023224 0.0
0.0 0.10000000149011612 0.0
0.0 0.125 0.0
0.0 0.15000000596046448 0.0
0.0 0.17499999701976776 0.0
0.0 0.20000000298023224 0.0
0.0 0.22499999403953552 0.0
0.0 0.25 0.0
0.0 0.2750000059604645 0.0
0.0 0.30000001192092896 0.0
0.0 0.32499998807907104 0.0
0.0 0.3499999940395355 0.0
0.0 0.375 0.0
0.0 0.4000000059604645 0.0
0.0 0.42500001192092896 0.0
0.0 0.44999998807907104 0.0
0.0 0.4749999940395355 0.0
0.0 0.5 0.0
0.0 0.5249999761581421 0.0
0.0 0.550000011920929 0.0
0.0 0.574999988079071 0.0
0.0 0.6000000238418579 0.0
0.0 0.625 0.0
0.0 0.6499999761581421 0.0
0.0 0.675000011920929 0.0
0.0 0.699999988079071 0.0
0.0 0.7250000238418579 0.0
0.0 0.75 0.0
0.0 0.7749999761581421 0.0
0.0 0.800000011920929 0.0
0.0 0.824999988079071 0.0
0.0 0.8500000238418579 0.0
0.0 0.875 0.0
0.0 0.8999999761581421 0.0
0.0 0.925000011920929 0.0
0.0 0.949999988079071 0.0
0.0 0.9750000238418579 0.0
0.02500000037252903 1.0 0.0
0.05000000074505806 1.0 0.0
0.07500000298023224 1.0 0.0
0.10000000149011612 1.0 0.0
0.125 1.0 0.0
0.15000000596046448 1.0 0.0
0.17499999701976776 1.0 0.0
0.20000000298023224 1.0 0.0
0.22499999403953552 1.0 0.0
0.25 1.0 0.0
0.2750000059604645 1.0 0.0
0.30000001192092896 1.0 0.0
0.32499998807907104 1.0 0.0
0.3499999940395355 1.0 0.0
0.375 1.0 0.0
0.4000000059604645 1.0 0.0
0.42500001192092896 1.0 0.0
0.44999998807907104 1.0 0.0
0.4749999940395355 1.0 0.0
0.5 1.0 0.0
0.5249999761581421 1.0 0.0
0.550000011920929 1.0 0.0
0.574999988079071 1.0 0.0
0.6000000238418579 1.0 0.0
0.625 1.0 0.0
0.6499999761581421 1.0 0.0
0.675000011920929 1.0 0.0
0.699999988079071 1.0 0.0
0.7250000238418579 1.0 0.0
0.75 1.0 0.0
0.7749999761581421 1.0 0.0
0.800000011920929 1.0 0.0
0.824999988079071 1.0 0.0
0.8500000238418579 1.0 0.0
0.875 1.0 0.0
0.8999999761581421 1.0 0.0
0.925000011920929 1.0 0.0
0.949999988079071 1.0 0.0
0.9750000238418579 1.0 0.0
1.0 0.9750000238418579 0.0
1.0 0.949999988079071 0.0
1.0 0.925000011920929 0.0
1.0 0.8999999761581421 0.0
1.0 0.875 0.0
1.0 0.8500000238418579 0.0
1.0 0.824999988079071 0.0
1.0 0.800000011920929 0.0
1.0 0.7749999761581421 0.0
1.0 0.75 0.0
1.0 0.7250000238418579 0.0
1.0 0.699999988079071 0.0
1.0 0.675000011920929 0.0
1.0 0.6499999761581421 0.0
1.0 0.625 0.0
1.0 0.6000000238418579 0.0
1.0 0.574999988079071 0.0
1.0 0.550000011920929 0.0
1.0 0.5249999761581421 0.0
1.0 0.5 0.0
1.0 0.4749999940395355 0.0
1.0 0.44999998807907104 0.0
1.0 0.42500001192092896 0.0
1.0 0.4000000059604645 0.0
1.0 0.375 0.0
1.0 0.3499999940395355 0.0
1.0 0.32499998807907104 0.0
1.0 0.30000001192092896 0.0
1.0 0.2750000059604645 0.0
1.0 0.25 0.0
1.0 0.22499999403953552 0.0
1.0 0.20000000298023224 0.0
1.0 0.17499999701976776 0.0
1.0 0.15000000596046448 0.0
1.0 0.125 0.0
1.0 0.10000000149011612 0.0
1.0 0.07500000298023224 0.0
1.0 0.05000000074505806 0.0
1.0 0.02500000037252903 0.0
0.9750000238418579 0.0 0.0
0.949999988079071 0.0 0.0
0.925000011920929 0.0 0.0
0.8999999761581421 0.0 0.0
0.875 0.0 0.0
0.8500000238418579 0.0 0.0
0.824999988079071 0.0 0.0
0.800000011920929 0.0 0.0
0.7749999761581421 0.0 0.0
0.75 0.0 0.0
0.7250000238418579 0.0 0.0
0.699999988079071 0.0 0.0
0.675000011920929 0.0 0.0
0.6499999761581421 0.0 0.0
0.625 0.0 0.0
0.6000000238418579 0.0 0.0
0.574999988079071 0.0 0.0
0.550000011920929 0.0 0.0
0.5249999761581421 0.0 0.0
0.5 0.0 0.0
0.4749999940395355 0.0 0.0
0.44999998807907104 0.0 0.0
0.42500001192092896 0.0 0.0
0.4000000059604645 0.0 0.0
0.375 0.0 0.0
0.3499999940395355 0.0 0.0
0.32499998807907104 0.0 0.0
0.30000001192092896 0.0 0.0
0.2750000059604645 0.0 0.0
0.25 0.0 0.0
0.22499999403953552 0.0 0.0
0.20000000298023224 0.0 0.0
0.17499999701976776 0.0 0.0
0.15000000596046448 0.0 0.0
0.125 0.0 0.0
0.10000000149011612 0.0 0.0
0.07500000298023224 0.0 0.0
0.05000000074505806 0.0 0.0
0.02500000037252903 0.0 0.0
0.5056927199513288 0.5041764598434736 0.0
0.7117996724427382 0.7033232211521048 0.0
0.7033114163780548 0.2953233463558085 0.0
0.2970877599755866 0.7074847747739229 0.0
0.2949277330312025 0.2974973837990952 0.0
0.7770278494674877 0.5059831380380323 0.0
0.5027252051700207 0.22309522334357187 0.0
0.4925180464821264 0.7789091331628545 0.0
0.22291860504096675 0.4981120331715064 0.0
0.829283965284971 0.8220842786531437 0.0
0.8205871589803159 0.17127048637284922 0.0
0.18119298256224103 0.8304566158904224 0.0
0.1714829752183005 0.1810984435563961 0.0
0.6438999147585641 0.5668310150647944 0.0
0.5643543631706006 0.3677482715868758 0.0
0.4420967078388513 0.6363631570214404 0.0
0.3625097070027885 0.42931163693239754 0.0
0.845842870982719 0.6440871239788202 0.0
0.6444311227207344 0.15612220677613567 0.0
0.3508401190395779 0.8425598935313185 0.0
0.15606123285421114 0.3562038700041577 0.0
0.6485029953358605 0.8425531287484305 0.0
0.8433119406390627 0.35875062690947257 0.0
0.1583190355237167 0.6442331300102738 0.0
0.35881044045688115 0.15851636214081777 0.0
0.6747219107685036 0.44959052849345166 0.0
0.584440629785636 0.6779126049373577 0.0
0.4473171806089212 0.3212833998457369 0.0
0.32881386571968896 0.5576499665434319 0.0
0.882854335269005 0.5320495680641881 0.0
0.5323159678647138 0.11348115662654075 0.0
0.46761129815027014 0.886359207444982 0.0
0.11363667498797961 0.47005054364353566 0.0
0.8981724682109038 0.7425799500147214 0.0
0.7427564440405321 0.1034296230144513 0.0
0.259570096495503 0.8976007015423157 0.0
0.10405570168423586 0.25925032475587534 0.0
0.7458494219460432 0.8842484568380651 0.0
0.11886813874714462 0.7449827401016532 0.0
0.8827671934619667 0.2571630512206637 0.0
0.25670630724460747 0.11953194220175539 0.0
0.7425509750649951 0.6047209022367068 0.0
0.6097973170831258 0.25186427264154054 0.0
0.39531703403470625 0.7495119562371795 0.0
0.2548198803019323 0.39603356302286996 0.0
0.5238226975641748 0.5933019558519529 0.0
0.8992197289351836 0.886334592147622 0.0
0.8851508525926385 0.10112784003274938 0.0
0.11649007363000037 0.9002447074049469 0.0
0.10128783893947188 0.11641339589436137 0.0
0.7624747012725397 0.39336253817016087 0.0
0.23889403929626984 0.6116803690523968 0.0
0.3913571776252331 0.23724813263576414 0.0
0.898471065973365 0.43751154001521464 0.0
0.4375786517695405 0.10305604502372757 0.0
0.5654751996307981 0.8957176635543966 0.0
0.10301766796412597 0.5648029972918692 0.0
0.7888890461880953 0.7432360218983721 0.0
0.7431134988641334 0.21222691263245388 0.0
0.25801454221709924 0.7896400094919478 0.0
0.21231347462299827 0.25837283054678806 0.0
0.7212166640684534 0.8021974348346829 0.0
0.7950438509801062 0.283829053089022 0.0
0.20582220824966682 0.7189514196873668 0.0
0.28839973986911316 0.20234775316219009 0.0
0.594875234829421 0.49604534439812825 0.0
0.49113435263812516 0.4130261326857793 0.0
0.42551265349606254 0.5477644900481583 0.0
0.6324704708864 0.7600101200607093 0.0
0.6530848481940158 0.35515000268231955 0.0
0.4960882599168354 0.6938376590092215 0.0
0.35449887651289363 0.6445672403519431 0.0
0.3499534167038996 0.3488546723506465 0.0
0.916816447833562 0.8163887867556974 0.0
0.8163008322859701 0.0840308199265475 0.0
0.1860865185523363 0.9173057362186025 0.0
0.08436973024009851 0.1855776622128402 0.0
0.828204812722657 0.9110627641286052 0.0
0.09155916138725934 0.8294299285716543 0.0
0.9100380882342274 0.17287012624405798 0.0
0.1724217946265147 0.09163509786628703 0.0
0.6991428483428723 0.519035283121507 0.0
0.6497396786955881 0.6498604851950908 0.0
0.5129368106315085 0.30466990153568846 0.0
0.30050854877027616 0.48569887170149134 0.0
0.9185794066022382 0.6082944800836676 0.0
0.61404764889396 0.08658788900790745 0.0
0.3964856151040801 0.9209829178973569 0.0
0.08417058647473738 0.38758520737515756 0.0
0.6643730608201919 0.9197924187750093 0.0
0.08152248788235612 0.6632809143418837 0.0
0.9198216827770915 0.339062072505143 0.0
0.3391306287636846 0.08191759363808428 0.0
0.8229866462695088 0.43748313837541974 0.0
0.5670523354584787 0.8179965106557051 0.0
0.43588939306680297 0.17772664133943994 0.0
0.17851206270625422 0.5657589651422448 0.0
0.4341487866945765 0.4594999963528807 0.0
0.8198912865993281 0.5706051744654613 0.0
0.5690303033661305 0.18210018098626646 0.0
0.43090628840431044 0.8194419669992842 0.0
0.18148906488520633 0.4327059571944077 0.0
0.7722690084450393 0.6683309374643467 0.0
0.6689533947579879 0.2260852094918198 0.0
0.3317643014064723 0.7768374354397445 0.0
0.2266741888201536 0.33303265901378165 0.0
0.9298836803666791 0.6852266904728348 0.0
0.6854761385471339 0.0727213730470364 0.0
0.3135519015725716 0.9276017461262869 0.0
0.07465032212779983 0.312720784995587 0.0
0.561813505860741 0.7414916344735807 0.0
0.6029168048638803 0.4203746300268602 0.0
0.3754188029304898 0.500385010471101 0.0
0.7346772039805078 0.4598524102609097 0.0
0.45603872252808675 0.26366824840070757 0.0
0.2672420795997204 0.5440019846690393 0.0
0.5878481227441269 0.6152970094510846 0.0
0.4182834608665662 0.3883018544422518 0.0
0.5723419901862608 0.5434001581585252 0.0
0.5485657909363807 0.44976204924026597 0.0
0.9349133094685289 0.4970143538632249 0.0
0.4983723255150306 0.06736057753969103 0.0
0.502339709348591 0.9330442055694199 0.0
0.06676884041154081 0.5033127488500903 0.0
0.8462653477827939 0.4992631748865806 0.0
0.49770928251282875 0.15434936273839595 0.0
0.4996007118599228 0.8430699882250025 0.0
0.15472242038618578 0.5036499404190835 0.0
0.8450118595610484 0.698571433441758 0.0
0.6986482806963792 0.15622637439318704 0.0
0.3012895205047949 0.844872056062771 0.0
0.15642564352822377 0.302427495188217 0.0
0.771440623222501 0.8385035580296358 0.0
0.8361006080129272 0.22973616975943265 0.0
0.1653459649915195 0.7727701312645902 0.0
0.22877722771784356 0.16549831513166696 0.0
0.7623920316122512 0.3278679713854952 0.0
0.23795116601452837 0.6755749822395459 0.0
0.3269783976256101 0.2386777373213274 0.0
0.6401911477073234 0.30222155864255795 0.0
[...]
POINT_DATA 2209
SCALARS Psi double
LOOKUP_TABLE default
0.0
0.0
0.0
0.0
0.0
0.0
0.0
0.0
0.0
0.0
0.0
0.0
0.0
0.0
0.0
0.0
0.0
0.0
0.0
0.0
0.0
0.0
0.0
0.0
0.0
0.0
0.0
0.0
0.0
0.0
0.0
0.0
0.0
0.0
0.0
0.0
0.0
0.0
0.0
0.0
0.0
0.0
0.0
0.0
0.0
0.0
0.0
0.0
0.0
0.0
0.0
0.0
0.0
0.0
0.0
0.0
0.0
0.0
0.0
0.0
0.0
0.0
0.0
0.0
0.0
0.0
0.0
0.0
0.0
0.0
0.0
0.0
0.0
0.0
0.0
0.0
0.0
0.0
0.0
0.0
0.0
0.0
0.0
0.0
0.0
0.0
0.0
0.0
0.0
0.0
0.0
0.0
0.0
0.0
0.0
0.0
0.0
0.0
0.0
0.0
0.0
0.0
0.0
0.0
0.0
0.0
0.0
0.0
0.0
0.0
0.0
0.0
0.0
0.0
0.0
0.0
0.0
0.0
0.0
0.0
0.0
0.0
0.0
0.0
0.0
0.0
0.0
0.0
0.0
0.0
0.0
0.0
0.0
0.0
0.0
0.0
0.0
0.0
0.0
0.0
0.0
0.0
0.0
0.0
0.0
0.0
0.0
0.0
0.0
0.0
0.0
0.0
0.0
0.0
0.0
0.0
0.0
0.0
0.0
0.0
-0.03844921296349289
-0.07264762647161638
-0.009694860951157618
-0.04647110604279958
-0.009198331957967541
-0.023149407651996624
-0.008311903223032541
-0.07849705671705755
-0.016443712632427842
-0.06365001773667221
-0.001592827414381034
-0.03688113654912491
-0.0017082969412149345
-0.04879830984003406
-0.020317725392747846
-0.055907602568315645
-0.02231068077284862
-0.03025906119488362
-0.0037090908984854843
-0.06430493427035519
-0.005062231011062715
-0.0832711698107808
-0.0053561479187386974
-0.01699136107274357
-0.003727831516928422
-0.02617943969422009
-0.07257482423043068
-0.015379275234076886
-0.03314165749180977
-0.009435702671057453
-0.0024807429999614463
-0.0679025453396005
-0.005090637701213679
-0.02692808513561465
-0.0011496069259331677
-0.050235254180362066
-0.0014066845355822073
-0.0707161399466885
-0.015932555335437613
-0.0015522420084912404
-0.0014788634380945244
-0.046214698462655496
-0.009459929077590976
-0.06559844997206869
-0.012796621369707916
-0.05442510182877443
-0.04041695892181264
-0.00022089257098955377
-0.028134833062268338
-0.0002695144785902853
-0.013113610092552819
-0.027216801553024462
-0.008229799164992944
-0.003906440430977736
-0.0019888981004043617
-0.068723103635459
-0.006288184916222591
-0.06581340739569329
-0.004304259944373602
-0.0483478167896114
-0.004585879085375475
-0.08308086578297041
-0.005247108823801587
-0.031422422799607566
-0.004539414147924896
-0.03736481040807611
-0.025499351902133385
-0.04079212876332913
-0.08481594196452777
-0.016538964967172835
-0.06980328717122938
-0.04707426595758319
-0.014733436126265658
-0.02733510124664531
-0.00042036506055024447
-0.03999226565618975
-0.0004991129035082012
-0.054356049378098736
-0.015406529630591932
-0.00040694257270328636
-0.0004650547920688493
-0.03500329863996401
-0.06654228753660504
-0.014486100468080182
-0.02301617734480408
-0.00795104040768862
-0.0013359104519159633
-0.053849144462917366
-0.0019988358938565934
-0.059487094364411845
-0.006155816030115624
-0.001299373309271736
-0.0010378135467166453
-0.010792976688475953
-0.08365481985230921
-0.005333272972219842
-0.015416974042555959
-0.02946356442304131
-0.02496959652700599
-0.005627233930549782
-0.07333806189928592
-0.009312365051720712
-0.054678910244330366
-0.006703771182198516
-0.05926070537747998
-0.007964761224646816
-0.010427071698103148
-0.0007937853747357472
-0.04740449493193348
-0.0010826205102668213
-0.08090087158452691
-0.025728479368564438
-0.030761910728126042
-0.02229398618534604
-0.010873574042172061
-0.024841839946573723
-0.060484021035545975
-0.020819698071498992
-0.04610766431610142
-0.030713940629828917
-0.0024679950164194155
-0.0009521923183908062
-0.050854670737202186
-0.002312787590865746
-0.012472309588196962
-0.004315234991213767
-0.07753302238720865
-0.009774256205087331
-0.040016715227838284
-0.00308185789174874
-0.05822216273546187
-0.00379004334817993
-0.075945348415781
-0.002355892124071306
-0.027990781618459262
-0.002272521195979228
-0.008794432196072404
-0.03309370224046848
-0.007006073615016896
-0.012433690754937804
-0.056090265767038426
-0.013397014135539894
-0.0548707676287298
-0.0014351649504972751
-0.004017540545954697
-0.0009487350926209612
-0.044515088470786994
-0.06630253324782502
-0.017758684934513273
-1.9324041361070856e-05
-0.02478947006202187
-9.502707638590083e-06
-0.047191679496911006
-0.003072072389918029
-0.0007539285946731708
-0.04663978580684295
-0.0014375570857800236
-0.013849281506446896
-0.0003967026266159588
-0.039257619843015054
-0.00046751866367770485
-0.04714163285884075
-0.006323717357847461
-0.00037767927407817846
-0.0004037474387034391
-0.052317081373382986
-0.002015472134272517
-0.04759375871725004
-0.0022723640022214346
-0.08110151990975994
-0.0036684888713487793
-0.019342345698709733
-0.0030485714426643096
-0.061611262788022
-0.038397209507751474
-0.019892148727178774
-0.03366622954764872
-0.014282941970177744
-0.07796621022310395
-0.018421499959335275
-0.05156549920641694
-0.010016063282423038
-0.016190781821661466
-0.019385720426680287
-9.932418041281503e-05
-0.030463876887086606
-0.000126976011311988
-0.04086675606764606
-0.01098820675988562
-0.00012485771449875885
-0.00015935613520711315
-0.0656135451761876
-0.018528453027658244
-0.012781708848008649
-0.03549088744788088
-0.0720970087964399
-0.017708881262899222
-0.0032860290427402564
-0.06867507475384713
-0.0053584462798007965
-0.0748021401132832
-0.006232183192452781
-0.04371720866722501
-0.006068802874395537
-0.08363072460202788
-0.039491502921072875
-0.006682033152610681
-0.06696869404166116
-0.009124693756303625
-0.04847043391712269
-0.0050051666110116294
-0.0005359707480573867
-0.0005197939164041245
-0.04797935553091434
-0.000609888897118673
-0.035080722103464475
-0.0006920411851509034
-0.010493735071876066
-0.006120215840088308
-0.020721089892611882
-0.0600985611653571
-0.07006149347195272
-0.002866899863150237
-0.040229979089262694
-0.0029587602035310735
-0.013051708385684325
-0.03918103653724341
-0.010433429041293412
-0.0038768083351579143
-0.07514509279819181
-0.0024466153252560886
-0.010041910997195069
-0.0860436593478725
-0.056232517740643924
-0.08565018975716292
-0.0361191337648368
-0.04983340441808022
-0.006568261634520654
-0.025810747198920746
-0.004964444623861403
-0.024283134840241326
-0.015785993753703327
-0.01737211046060074
-0.0009985621446987857
-0.0005842195300074442
-0.04370169829684787
-0.0019528410978954646
-0.06750624232499389
-0.024617518332101258
-0.0012191558626663242
-0.0012720773836892496
-0.006256918720284982
-0.0024443821595683934
-0.0706129482346042
-0.006106843114948953
-0.016002707897266752
-0.008193897046583961
-0.022043468443868522
-0.030459868358344577
-0.0399853013174237
-0.02440711412161663
-0.002172200276425582
-0.059312508336097525
-0.0028875720268381967
-0.004944376489044285
-0.00024391962162086778
-0.029898952216676867
-0.0002700931001678928
-0.002480556283501882
-0.0003126837373068273
-0.03488516138222538
-0.0005552267065367199
-0.020147398934546798
-0.07439698600203354
-0.022816837626227607
-0.03096320174793627
-0.03712204437447348
-0.08037443694531284
-0.04476778968113708
-0.0011142438448851649
-0.044042018546808025
-0.001271919474023639
-0.06714099735619673
-0.007199797783695101
-0.05120174644489835
-0.007547440182308247
-0.05265991673338933
-0.0004562118551735152
-0.025532584330742458
-0.0005209927333138212
-0.043863991652503924
-0.016322952042660415
-0.07610887096136452
-0.046666959184678745
-0.024746399975250296
-0.028592957109667767
-0.08219897729524946
-0.020718846070189582
-0.024943127602453905
-0.04415852500365682
-0.027299569410542214
-0.028325461425875997
-0.011165771140280525
-0.013580779137743484
-0.02133521192829572
-0.05891537577185518
-0.0679849308552277
-0.009002707291176111
-0.00012689917464318802
-0.029780299075136626
-0.00015065975684395904
-0.038404847340031405
-0.005397826790933375
-0.00015552580742161188
-0.00019001233188758576
-0.02724722928697111
-0.035810969264981195
-0.03933857359037072
-0.008300793586861265
-0.012459377557205525
-0.016271810735955995
-0.004416544087849192
-0.0769175137217259
-0.008541174596737186
-0.07549417722524575
-0.01263247951148857
-0.002945836491373305
-0.002252906030687313
-0.03519780025160168
-0.001727553584104122
-0.0003687207790273126
-0.00031730882250988505
-0.002120356379384976
-0.00046906019926670913
-0.03329638098059282
-0.0007972027597066918
-0.008412373511530806
-0.0037623008681743173
-0.0789105521590486
-0.010360727032889596
-0.018899454970826943
-0.006944772482751929
-0.08271322301091119
-0.004001353172426674
-0.014274819461594491
-0.009291344772261307
-0.06111420212393323
-0.011303607594909103
-0.06350507848907071
-0.015458713340136156
-0.000879731694299976
-0.0009144585436080059
-0.06384203258045863
-0.02857995811766912
-0.0007416408127151663
-0.04499772261501853
-0.0008806612769093605
-0.01953248415544726
-0.0025231400495939415
-0.06333481655633892
-0.0035848747813512116
-0.01419114449822888
-2.005446147061135e-05
-0.02333283031038708
-3.0505231164207476e-05
-0.0072259364039906305
-0.02643451909333049
-2.5200390660500208e-05
-1.4152809016144677e-05
-0.07055162136966281
-0.04507116611021124
-0.004747425567642711
-0.06083224418995902
-0.005871808010034718
-0.06774175799263503
-0.010648789357996449
-0.0016382969470723852
-0.0014235578454131845
-0.07025734116165548
-0.012903951339983417
-0.04697699699062081
-0.011986312882625562
-0.007685891133725751
-0.013527573652020468
-0.02688723644691274
-0.017605832668241467
-0.015359368097004143
-0.006229988431399646
-0.014812232806139289
-0.007375035201322079
-0.0016182871860087463
-0.05993276633014925
-0.0029132863340509754
-0.07343991846235684
-0.032273984725943325
-0.04367589728274513
-0.05243445737471165
-0.05433233750321699
-0.01221919031434988
-0.01485514400220169
-0.027313064761110114
-0.0044800341104126685
-0.06946397664127175
-0.0066625705034204915
-0.009463531719911983
-0.006512480465689901
-0.026560164584216794
-0.08471995567853997
-0.030880640837021786
-0.059022856988508614
-0.005230071356559638
-0.05444395464961205
-0.005881054297390609
-0.0009835834102560862
-0.0003458650699511766
-0.0327873690551784
-0.0007789901765567731
-0.05383253135819746
-0.052881265577434236
-0.06272611559809885
-0.026612940100012344
-0.022324489627640675
-0.012715390064703996
-0.030499821742492675
-0.06678483781576512
-0.07096778022974345
-0.07949496153207597
-0.003017325098865603
-0.025139051004922173
-0.002743156457977511
-0.07823201923353872
-0.003882026719049089
-0.037033974431510804
-0.003763998894300104
-0.04385590931170927
-0.0022164908908822566
-0.05274746228169425
-0.002614541072361178
-0.019572575489232854
-0.0011260997939910112
-0.05168419295112738
-0.001476910498679728
-0.021075981500749748
-0.00922367404828595
-0.020571238025248836
-0.07497175459154631
-0.009811910695238932
-0.05446159264470959
-0.010492133673482092
-0.03130085449679523
-0.016928230915837127
-0.00272619838572049
-0.00022384050720317
-0.02649181558242833
-0.00026109180353292013
-0.024139236176336558
-0.02388740360673634
-0.05155516985996028
-0.01169629806472422
-0.0012708579266488974
-0.05332957563482515
-0.0017256603025861254
-0.008154009554735999
-0.0402311155725318
-0.007298877655971226
-0.03251320148334712
-0.0002760005063617164
-0.034506532248417196
-0.0003273286804553001
-0.032754000778579415
-0.0018562490793489676
-0.00024757319202732244
-0.00024391037037985042
-0.0006379717296126061
-0.0003030998150814796
-0.03081634290489979
-0.0008147804187731922
-0.00424366759237669
-0.00118911982579223
-0.05470157793862585
-0.002524646901133088
-0.011005431504191603
1.8420673925645491e-06
-0.012761117952337503
2.7908928841379544e-06
-0.06350747179969686
-0.017870893844968525
-0.010345996763111539
-0.02856677070648928
-0.05885652974896267
-0.000818167362905649
-0.02935095385695237
-0.0008973002894579199
-0.030265426879095742
-0.0023173371263304674
-0.00014125217118300304
-0.00016825638759807512
-0.006133917508539917
-0.012372316368018558
-0.018922295025528703
-0.07955020934625565
-0.033447149053089924
-0.060524922593524856
-0.005666408057933586
-0.0016179026526573527
-0.001161713899849763
-0.08061676305274068
-0.08625398091762838
-0.07336578295954381
-0.022721208126857736
-0.0017851742750631197
-0.0017528020653653114
-0.05711424223499048
-0.0007689724429526349
-0.008391216268598864
-0.0007532708212466306
-0.07498032691528467
-0.06541501579895205
-0.016107385636862204
-0.0005881747080883774
-0.04368183641653788
-0.0007275223688674752
-0.03514425297974063
-0.002268697363549618
-0.0011186447977814434
-0.0557525221100792
-0.00324598336721574
-0.03215190849481231
-0.0011234035742001952
-0.000436044795647968
-0.00030234670334017435
-0.06045290182582822
-0.04476907398917896
-0.05994659032803763
-0.028732455846050543
-0.06866713056649461
-0.005315548221569073
-0.07612793048458322
-0.00280532623032683
-0.0093398358417287
-0.05203341078062029
-0.028746921622555148
-0.01306882827384489
-0.019872099020419993
-0.08453684647652018
-0.011194525248105894
-0.015122370375647527
-0.008956513419578385
-6.30657675251911e-05
-4.890200726366165e-05
-7.012575863817089e-05
-0.028571392042257795
-0.004030979528674442
-0.02617214210152884
-7.901263323097095e-05
-0.015795908794673918
-0.0408700051541459
-0.012427016346439527
-0.04151246908370204
-0.041340679381086126
-0.011802023057109241
-0.03196137150523128
-0.008457071124830632
-0.06016146148943526
-0.03689593956274206
-0.06975961549131295
-0.0019928342549908455
-0.034367047473142474
-0.002065714706329641
-0.07873765947666524
-0.061575122006437465
-0.002834979954898532
-0.06136039614730924
-0.0019862672435759367
-0.046376972890929825
-0.042061754149453755
-0.003081827372920851
-0.0021426128534047548
-0.007003958333481588
-0.02059249061616767
-0.004780110365415315
-0.07550304818548506
-0.0023682470217354394
-0.06233937515215094
-0.001398279319015842
-0.005186668740359522
-0.02758139533024124
-4.682595912229756e-05
-0.023835769875850392
-6.638279946562174e-05
-0.0029856165491101865
-0.00010258519766368237
-0.022565682300770336
-0.00012662062235373748
-0.01470171722648877
-0.014823607437132316
-0.052823022360724795
-0.004624595727134868
-9.174398636238389e-05
-0.023965373778389136
-0.00011277241460069196
-0.02909536527568445
-0.0026985803520081
-9.795145017520688e-05
-0.00012107495606212908
-0.04380329550856032
-0.03963899683132033
-0.001411721818004946
-0.04890074287808167
-0.001652894843545692
-0.00964715865086367
-0.0031560656681638662
-0.07349660398665532
-0.007011001293013063
-0.05691454227469614
-0.003625325534896805
-0.05200466950398744
-0.0040699345504930165
-0.00708422357125593
-0.03044682636381615
-0.005958543707443484
-0.03659651466035733
-0.08291084917884865
-0.08268097935851816
-0.015048632751225841
-0.032768243308379505
-0.010199274405224362
-0.040366261840669854
-0.01716388380585758
-0.0001126516437306885
-0.00014638174224029888
-0.03287563313975444
-0.0031242003659645
-0.061301138829460665
-0.004059484642232608
-0.0732086643403446
-0.004203208636357611
-0.04248526949305064
-0.004271111057533321
-0.02095433776853031
-0.060292860082409125
-0.04248987027078125
-0.02147081354312796
-0.02131590820351894
-0.0810805002968797
-0.00034504005048523764
-0.00010332610579916752
-0.01900680484901008
-0.0002071779097096024
-0.03962399326477771
-0.08042884364125105
-0.0187743495079168
-0.03379666328683189
-0.021674337396067587
-0.0054686270469235555
-9.696602117628821e-07
-0.008299744605874671
-0.01868144212735342
-0.016599525589464637
1.1350407412244119e-06
1.6782116517168475e-06
-1.0477657338230056e-06
-0.049379619971032754
-0.004315355518188108
-0.004556223798523689
-0.023971869366691347
-0.018634687825235686
-0.0038278202242413416
-0.003483441307547586
-0.08053073631886022
-0.03604899086254087
-0.010822125421911353
-0.039745143017060135
-0.00907772988272659
-0.02691694088172789
-0.08015702878382669
-0.03565650694536524
-0.0021595049188121527
-0.055570768949188734
-0.0026289773113101805
-0.07126274388301537
-0.008242005654201988
-0.06484000666008004
-0.01065453485683189
-0.07647584743904695
-0.03881252501895533
-0.005154671703661642
-0.06479469901345132
-0.006847479698322562
-0.04814365698993954
-0.015256601188656923
-0.00024301960763633982
-0.0002895717885869228
-0.07657641373998156
-0.01973557911299795
-0.002349835191620902
-0.0021403005927456125
-0.053507004576489076
-0.02092582638053221
-0.04709822516274915
-0.08418362002448355
-0.016086010291006182
-0.009978523234037907
-0.017853008223566166
-0.055069854778583636
-0.02860484177116529
-0.012575513265746274
-0.007412161399628065
-0.023863955002677358
-0.0058513305493611435
-0.03551193650778371
-0.00528186465504662
-0.014416257159413269
-0.003390181372666535
-0.006146933850710808
-0.061547070272004845
-0.07932324898747972
-0.03061580876584603
-0.0033152843009039944
-0.003101059803967751
-0.018355782033234014
-0.00031833999554098337
-0.03829726120309982
-0.00038170626850413277
-0.04873534855237047
-0.008631460847802329
-0.00034085891017130766
-0.0003829082744906734
-0.03536439659518598
-0.016550685266530297
-0.05013359802759158
-0.011721389756566942
-0.004765131597696605
-0.011847062401367904
-0.027023157287510233
-0.0009215061593246016
-0.00022379034496550047
-0.00018946408834637793
-0.07122192099831792
-0.017322319470870453
-0.03237946395212212
-0.0001355723048640957
-0.00016880671178672835
-0.0675604862785641
-0.005341647834260429
-0.048977831869878634
-0.005608028424421394
-0.04169612020514873
-0.023141630158842626
-0.0034664373663588254
-0.06754271909416357
-0.0051178120879411745
-0.07738482219352816
-0.003734316572523779
-0.012217820516587569
-0.002592617264005498
-0.08337711430540151
-0.032097433888172
-0.08560680342937678
-0.05903387801270862
-0.0006268716514022829
-0.0214431365397243
-0.0006914666119789804
-0.014327050342461017
-0.005644331294412917
-0.05174771848066383
-0.009219333041455453
-2.5794083192849213e-05
-0.02340165397778144
-3.661934980223878e-05
-0.023190495191027675
-0.003798424739728145
-1.3612788359241521e-05
-2.4403953870302674e-05
-0.06905225371594165
-0.011606214355741731
-0.006096181356135649
-0.018380450779294396
-0.05569829097265758
-0.001047740655437958
-0.0368956842807377
-0.00115560564056437
-0.018937424093776575
-0.000938918543039669
-0.0016618811600396918
-0.04669216461583599
-0.03985492981369023
-0.00782750341938752
-0.045447119832587965
-0.007541410271946041
-0.000742714656073275
-0.0001329553261151512
-0.02246695935936736
-0.0002150751526209299
-0.06745870864920729
-0.0700350056320749
-0.07233674578586456
-0.014242621527296648
-0.002272687122216345
-0.06340468634416228
-0.003513321273734974
-0.05762666071700607
-0.0010110626836414766
-0.006527525558761116
-0.0008810595706802011
-0.03098286610527052
-0.00017638593990296084
-0.03164147019155818
-0.0002166052622830683
-0.03446946971243168
-0.03761982943890254
-0.0005428043294500671
-0.03920220177008857
-0.0006386952308199405
-0.08567874648844805
-0.0209131011923671
-0.00434805966634118
-0.007227337256917524
-0.04797820677645388
-0.00040126796683349767
-0.029154850686639165
-0.00046634154844882775
-0.0074910172450141305
-0.004636021935672111
-0.01783804874778898
-0.021626356780961798
-0.012138808715447447
-0.0006873515824712481
-0.04730244535970441
-0.0010262209716603995
-0.017662278458363673
-0.0006619135222705209
-5.1466121528863075e-05
-6.575920931969467e-05
-0.0059688236163765425
-0.010926279025896376
-0.03702904076879922
-0.012138207130515154
-0.020700628881915588
-0.060707154206548014
-0.02221242497474494
-0.03252266963745021
-0.006596728042287063
-0.009893047019411638
-0.0009689518016125782
-0.00010149386031143769
-0.01994007498834433
-0.00013629010922857279
-0.013910145187905386
-0.014551710774667397
-0.006894377893433846
-0.0181433396916249
-0.04719165326862712
-0.021988774207796057
-0.0002494119533620535
-0.0002986102068795143
-0.017701948283629
-0.08489952630602737
-0.005966434111317816
-0.0020635942428764943
-0.06618502621823266
-0.004697068844836861
-0.05145669600955135
-0.04675055866605338
-0.01954092266458411
-0.0705961471069863
-0.010934511600288516
-0.049841047111658404
-0.010756249125706736
-0.006721854997364917
-0.06321611822856472
-0.00853063861640582
-0.042107570114917066
-0.02242671723359066
-0.051553705495747386
-0.000377052964879114
-0.00017636802890451874
-0.022740112208802257
-0.0004160627133432307
-0.008980481092121023
-0.003507642705240087
-0.077232384227857