# vtk DataFile Version 1.0
2D Simulation C++
ASCII
DATASET UNSTRUCTURED_GRID
FIELD FieldData 1
NODES 1 2 int
2209 4256

POINTS 2209 double
0.0 0.0 0.0
0.0 1.0 0.0
1.0 1.0 0.0
1.0 0.0 0.0
0.0 0.02500000037252903 0.0
0.0 0.05000000074505806 0.0
0.0 0.07500000298023224 0.0
0.0 0.10000000149011612 0.0
0.0 0.125 0.0
0.0 0.15000000596046448 0.0
0.0 0.17499999701976776 0.0
0.0 0.20000000298023224 0.0
0.0 0.22499999403953552 0.0
0.0 0.25 0.0
0.0 0.2750000059604645 0.0
0.0 0.30000001192092896 0.0
0.0 0.32499998807907104 0.0
0.0 0.3499999940395355 0.0
0.0 0.375 0.0
0.0 0.4000000059604645 0.0
0.0 0.42500001192092896 0.0
0.0 0.44999998807907104 0.0
0.0 0.4749999940395355 0.0
0.0 0.5 0.0
0.0 0.5249999761581421 0.0
0.0 0.550000011920929 0.0
0.0 0.574999988079071 0.0
0.0 0.6000000238418579 0.0
0.0 0.625 0.0
0.0 0.6499999761581421 0.0
0.0 0.675000011920929 0.0
0.0 0.699999988079071 0.0
0.0 0.7250000238418579 0.0
0.0 0.75 0.0
0.0 0.7749999761581421 0.0
0.0 0.800000011920929 0.0
0.0 0.824999988079071 0.0
0.0 0.8500000238418579 0.0
0.0 0.875 0.0
0.0 0.8999999761581421 0.0
0.0 0.925000011920929 0.0
0.0 0.949999988079071 0.0
0.0 0.9750000238418579 0.0
0.02500000037252903 1.0 0.0
0.05000000074505806 1.0 0.0
0.07500000298023224 1.0 0.0
0.10000000149011612 1.0 0.0
0.125 1.0 0.0
0.15000000596046448 1.0 0.0
0.17499999701976776 1.0 0.0
0.20000000298023224 1.0 0.0
0.22499999403953552 1.0 0.0
0.25 1.0 0.0
0.2750000059604645 1.0 0.0
0.30000001192092896 1.0 0.0
0.32499998807907104 1.0 0.0
0.3499999940395355 1.0 0.0
0.375 1.0 0.0
0.4000000059604645 1.0 0.0
0.42500001192092896 1.0 0.0
0.44999998807907104 1.0 0.0
0.4749999940395355 1.0 0.0
0.5 1.0 0.0
0.5249999761581421 1.0 0.0
0.550000011920929 1.0 0.0
0.574999988079071 1.0 0.0
0.6000000238418579 1.0 0.0
0.625 1.0 0.0
0.6499999761581421 1.0 0.0
0.675000011920929 1.0 0.0
0.699999988079071 1.0 0.0
0.7250000238418579 1.0 0.0
0.75 1.0 0.0
0.7749999761581421 1.0 0.0
0.800000011920929 1.0 0.0
0.824999988079071 1.0 0.0
0.8500000238418579 1.0 0.0
0.875 1.0 0.0
0.8999999761581421 1.0 0.0
0.925000011920929 1.0 0.0
0.949999988079071 1.0 0.0
0.9750000238418579 1.0 0.0
1.0 0.9750000238418579 0.0
1.0 0.949999988079071 0.0
1.0 0.925000011920929 0.0
1.0 0.8999999761581421 0.0
1.0 0.875 0.0
1.0 0.8500000238418579 0.0
1.0 0.824999988079071 0.0
1.0 0.800000011920929 0.0
1.0 0.7749999761581421 0.0
1.0 0.75 0.0
1.0 0.7250000238418579 0.0
1.0 0.699999988079071 0.0
1.0 0.675000011920929 0.0
1.0 0.6499999761581421 0.0
1.0 0.625 0.0
1.0 0.6000000238418579 0.0
1.0 0.574999988079071 0.0
1.0 0.550000011920929 0.0
1.0 0.5249999761581421 0.0
1.0 0.5 0.0
1.0 0.4749999940395355 0.0
1.0 0.44999998807907104 0.0
1.0 0.42500001192092896 0.0
1.0 0.4000000059604645 0.0
1.0 0.375 0.0
1.0 0.3499999940395355 0.0
1.0 0.32499998807907104 0.0
1.0 0.30000001192092896 0.0
1.0 0.2750000059604645 0.0
1.0 0.25 0.0
1.0 0.22499999403953552 0.0
1.0 0.20000000298023224 0.0
1.0 0.17499999701976776 0.0
1.0 0.15000000596046448 0.0
1.0 0.125 0.0
1.0 0.10000000149011612 0.0
1.0 0.07500000298023224 0.0
1.0 0.05000000074505806 0.0
1.0 0.02500000037252903 0.0
0.9750000238418579 0.0 0.0
0.949999988079071 0.0 0.0
0.925000011920929 0.0 0.0
0.8999999761581421 0.0 0.0
0.875 0.0 0.0
0.8500000238418579 0.0 0.0
0.824999988079071 0.0 0.0
0.800000011920929 0.0 0.0
0.7749999761581421 0.0 0.0
0.75 0.0 0.0
0.7250000238418579 0.0 0.0
0.699999988079071 0.0 0.0
0.675000011920929 0.0 0.0
0.6499999761581421 0.0 0.0
0.625 0.0 0.0
0.6000000238418579 0.0 0.0
0.574999988079071 0.0 0.0
0.550000011920929 0.0 0.0
0.5249999761581421 0.0 0.0
0.5 0.0 0.0
0.4749999940395355 0.0 0.0
0.44999998807907104 0.0 0.0
0.42500001192092896 0.0 0.0
0.4000000059604645 0.0 0.0
0.375 0.0 0.0
0.3499999940395355 0.0 0.0
0.32499998807907104 0.0 0.0
0.30000001192092896 0.0 0.0
0.2750000059604645 0.0 0.0
0.25 0.0 0.0
0.22499999403953552 0.0 0.0
0.20000000298023224 0.0 0.0
0.17499999701976776 0.0 0.0
0.15000000596046448 0.0 0.0
0.125 0.0 0.0
0.10000000149011612 0.0 0.0
0.07500000298023224 0.0 0.0
0.05000000074505806 0.0 0.0
0.02500000037252903 0.0 0.0
0.5045884586838594 0.5014168280348609 0.0
0.7104553422190243 0.7014475052138207 0.0
0.7012666077697509 0.2939330167278229 0.0
0.29617638563496845 0.7050487860198963 0.0
0.29352176501688704 0.2948249355057893 0.0
0.7750716411823244 0.5046249853650524 0.0
0.5012327455124396 0.22106533783202037 0.0
0.4911649286071306 0.776689045285318 0.0
0.22227363899444355 0.49555487599129405 0.0
0.8276356129440401 0.8201181288249584 0.0
0.8188494619985321 0.1704421868771799 0.0
0.17957111374570706 0.8285652061152042 0.0
0.16985819404368274 0.17894872616794422 0.0
0.6417554120955191 0.5648127744425488 0.0
0.5628609956227375 0.36575436134729145 0.0
0.4410415073003907 0.6332616351182119 0.0
0.3615053222623102 0.4264615747506855 0.0
0.8438172199388639 0.6430694532700465 0.0
0.6430564752661527 0.15492406507170534 0.0
0.34938593591389067 0.8409827372072034 0.0
0.1541907955230136 0.35378852491339186 0.0
0.6475033663208916 0.8401782528474395 0.0
0.8411422080351645 0.35752888806012423 0.0
0.1572447645796493 0.6418206499550433 0.0
0.35733803874321024 0.15615187728453175 0.0
0.6726968947368835 0.4477400627647511 0.0
0.5828398289744374 0.6749665913773123 0.0
0.4458496909162363 0.3189154671713661 0.0
0.32753052144284434 0.5546302890015133 0.0
0.8812266262297763 0.5305915604062245 0.0
0.5300571774940892 0.11243349864918792 0.0
0.46631007334802366 0.8850175753882481 0.0
0.1121389710560131 0.46820569245960836 0.0
0.8970371632245782 0.7413560598184523 0.0
0.7408657075738945 0.10199417097324398 0.0
0.25774376384624414 0.8959835474613667 0.0
0.10227748194059633 0.25692658699773163 0.0
0.7441144999831744 0.8817401252031966 0.0
0.11812975236192536 0.7434525201286811 0.0
0.8802444748004915 0.2557190837561216 0.0
0.25469975269855843 0.11753503569313947 0.0
0.7406962501630601 0.603118755035247 0.0
0.6083123684609056 0.2502445027974455 0.0
0.3942927408837144 0.747001573033847 0.0
0.2534761640355524 0.393763831966914 0.0
0.522592122003212 0.5904290892631562 0.0
0.8976841838621707 0.8845662979404909 0.0
0.8833764531642485 0.10005490942784456 0.0
0.11507339010565006 0.8986035959695964 0.0
0.09997729172781049 0.11469929175379122 0.0
0.7606842922258791 0.3916642199078123 0.0
0.23805555341094012 0.60898602167753 0.0
0.3900595335370777 0.23494861805616196 0.0
0.8966133074953879 0.43619450257230047 0.0
0.43570280785348564 0.10125858258534998 0.0
0.5642559438307221 0.8933820446229841 0.0
0.10205503002545346 0.5624895502181693 0.0
0.7873268714867748 0.7413955666179249 0.0
0.7412914077977312 0.21056743069742914 0.0
0.2563565012076987 0.7882097790595243 0.0
0.2105962336869325 0.2559425870719424 0.0
0.7198617070405278 0.7991385819102677 0.0
0.7934136974563546 0.2827952729006301 0.0
0.20494346672661254 0.7167348671243413 0.0
0.2864830979355553 0.20052596023674965 0.0
0.5932527274763179 0.4937524046834707 0.0
0.49021767839735847 0.41072489562105363 0.0
0.4245297670359245 0.5451615971198539 0.0
0.6312836996927184 0.7571156690964378 0.0
0.6508685943765838 0.3535993114552939 0.0
0.4951513296024616 0.6908436231411872 0.0
0.35341221068283896 0.6416745674252397 0.0
0.349078757358898 0.346291939767609 0.0
0.9153871166759473 0.8147514317063608 0.0
0.8141277945409555 0.08319164763325873 0.0
0.1843711768155741 0.9158274037790252 0.0
0.08324277842568732 0.1835633329674415 0.0
0.8271471211310729 0.9092758353260306 0.0
0.09020161727871805 0.8271632871503852 0.0
0.908393940823094 0.17094467390232657 0.0
0.17103498366977113 0.08967376009293235 0.0
0.6975942285428308 0.5171091337958119 0.0
0.6480967207492969 0.6474749491221233 0.0
0.5120227355173944 0.3020605631106677 0.0
0.29932388388576125 0.4826344712465485 0.0
0.9167851483831304 0.6068662025897072 0.0
0.6120013321585264 0.08460771694775185 0.0
0.39479402387392937 0.9189785843957212 0.0
0.08202639662957621 0.3861872484300475 0.0
0.663318042586468 0.9178472411061516 0.0
0.08032824646065406 0.6613950581637834 0.0
0.918099338682517 0.3376410421726725 0.0
0.33690887653727747 0.08031455565194853 0.0
0.8204511094305262 0.43599355964833586 0.0
0.5660041256711988 0.8150153719761895 0.0
0.43487514118258286 0.17597139511520643 0.0
0.1775516946879261 0.5636718099330885 0.0
0.43308088205249745 0.45711126097705257 0.0
0.8172751800306078 0.5694440373506748 0.0
0.5673155284416188 0.18059457480790905 0.0
0.4296055131902275 0.8174596590408846 0.0
0.18008982885280655 0.43026839632773084 0.0
0.7698269324666985 0.6667932616438482 0.0
0.6670810407988795 0.22481489644678948 0.0
0.3307094220399479 0.7745862858701206 0.0
0.2248310913967112 0.3301656197111659 0.0
0.9278454058376835 0.6834011421655679 0.0
0.6840892898204678 0.07134419660991653 0.0
0.31154966080067564 0.9257051317327482 0.0
0.07268995070254929 0.3105796724011948 0.0
0.5604252217694625 0.7391549880073462 0.0
0.6012110419636809 0.418465037541497 0.0
0.3744011906700632 0.4975847792389212 0.0
0.7328662717688131 0.4581629635935255 0.0
0.45471865255162014 0.261337017373839 0.0
0.266126576614542 0.5409212644629462 0.0
0.5862255609133284 0.6129033892483938 0.0
0.41711290705909987 0.3855849592367877 0.0
0.5709325786626628 0.5408125173229437 0.0
0.5473266849889096 0.4476007048701959 0.0
0.9326682347690631 0.4959523830753224 0.0
0.4971077251260727 0.0655332564292736 0.0
0.5009189779342458 0.9307572947526618 0.0
0.06564422797837578 0.501642949260953 0.0
0.8444192270424219 0.4978615893062186 0.0
0.4962360063016274 0.15270155524988094 0.0
0.49793018401910466 0.8409133980572757 0.0
0.15320751354305276 0.5018840439176859 0.0
0.8434811213420076 0.6970316890114411 0.0
0.6972105850801626 0.15503988642166228 0.0
0.2999196524204178 0.842812302830075 0.0
0.15530069774632804 0.30039702369231625 0.0
0.7704660366368833 0.8364782154923787 0.0
0.8339192469152916 0.22818662322529 0.0
0.16404769363523516 0.7708028285807609 0.0
0.22716752647783653 0.1628620078041566 0.0
0.7606306489151053 0.327030543212801 0.0
0.23723111292150698 0.673406352743111 0.0
0.32489251954414816 0.2361531963458976 0.0
0.6381898250358675 0.3003610862190999 0.0
[...]
POINT_DATA 2209
SCALARS Psi double
LOOKUP_TABLE default
0.0
0.0
0.0
0.0
0.0
0.0
0.0
0.0
0.0
0.0
0.0
0.0
0.0
0.0
0.0
0.0
0.0
0.0
0.0
0.0
0.0
0.0
0.0
0.0
0.0
0.0
0.0
0.0
0.0
0.0
0.0
0.0
0.0
0.0
0.0
0.0
0.0
0.0
0.0
0.0
0.0
0.0
0.0
0.0
0.0
0.0
0.0
0.0
0.0
0.0
0.0
0.0
0.0
0.0
0.0
0.0
0.0
0.0
0.0
0.0
0.0
0.0
0.0
0.0
0.0
0.0
0.0
0.0
0.0
0.0
0.0
0.0
0.0
0.0
0.0
0.0
0.0
0.0
0.0
0.0
0.0
0.0
0.0
0.0
0.0
0.0
0.0
0.0
0.0
0.0
0.0
0.0
0.0
0.0
0.0
0.0
0.0
0.0
0.0
0.0
0.0
0.0
0.0
0.0
0.0
0.0
0.0
0.0
0.0
0.0
0.0
0.0
0.0
0.0
0.0
0.0
0.0
0.0
0.0
0.0
0.0
0.0
0.0
0.0
0.0
0.0
0.0
0.0
0.0
0.0
0.0
0.0
0.0
0.0
0.0
0.0
0.0
0.0
0.0
0.0
0.0
0.0
0.0
0.0
0.0
0.0
0.0
0.0
0.0
0.0
0.0
0.0
0.0
0.0
0.0
0.0
0.0
0.0
0.0
0.0
-0.060407097422751056
-0.09098547172069697
-0.014065823444943847
-0.057477365013883036
-0.013901212133258704
-0.03557050981442927
-0.01227950593472038
-0.09317451513411307
-0.024289158770879362
-0.06924049721003113
-0.00153327294658585
-0.03792685335949246
-0.002235175045890586
-0.07284354194471533
-0.032582725278632825
-0.07792540756995617
-0.035116477901397304
-0.04074305134724537
-0.004739968073670508
-0.069755251363926
-0.0074477928062237925
-0.09202161550270654
-0.007502742464463642
-0.02140852216987537
-0.00516442286889157
-0.0416090809640821
-0.09621688638983159
-0.02419487055221026
-0.048517702221747644
-0.014087910870843257
-0.003308948522053888
-0.07295892490199864
-0.007346771506140266
-0.03215944397531875
-0.00115510203882433
-0.05145726425829585
-0.0019102167869161867
-0.07483345938915835
-0.017337418217127896
-0.0016381425676624377
-0.0018950067804829286
-0.06541960852831057
-0.013849338692812966
-0.07936543177547668
-0.01953268615810065
-0.07983212055729758
-0.042265229897185494
-9.441519279061875e-05
-0.02776711484739804
-0.0002983231193088714
-0.02000637476231883
-0.03671844355351294
-0.012266344283708834
-0.005686233195793467
-0.0026667044499616515
-0.07424798632590864
-0.008443631302380166
-0.0777922222241042
-0.005317135664486418
-0.0533643062933237
-0.006579353484784933
-0.0934852620164734
-0.006828993635021108
-0.03690932453741478
-0.006401823453261784
-0.05902127353317142
-0.04112100662580132
-0.06185853486110327
-0.10146479754543311
-0.0258970851042093
-0.09154992939277413
-0.06388698519423697
-0.023030581870182306
-0.030208826367318885
-0.0003091032798016049
-0.040135531934719894
-0.0006161275531799022
-0.05606244991171944
-0.015168535317662055
-0.0002546864848469244
-0.0005334899758713725
-0.05393584294055895
-0.09022207914741567
-0.02263910656748513
-0.03492634115475381
-0.011484979082528128
-0.001603712834835928
-0.05647164098493121
-0.002859914231272005
-0.06273668538304059
-0.007233411818329771
-0.0015748464868543532
-0.0013309877929782764
-0.016421768309939317
-0.09553901405591392
-0.007645976305482687
-0.021336656426748826
-0.04679654450183235
-0.03651853414183301
-0.007873918796474309
-0.08281432463547093
-0.013844049833821155
-0.07118704280322907
-0.009219806632891599
-0.0682113284910384
-0.01187506425042529
-0.013704444120163459
-0.0008368767201085471
-0.048998031397407445
-0.0014868488249756822
-0.09995150265801482
-0.04154040688582998
-0.04752937096526719
-0.03497950295929095
-0.016648490164695235
-0.03599299118796609
-0.08618793788160754
-0.033266772627923415
-0.0706814506564248
-0.04949982375667195
-0.0036784217676014974
-0.001212741527159674
-0.054042822525387856
-0.0032078877564835446
-0.018880814550837614
-0.00605553341551316
-0.08644919644471685
-0.014006517163217118
-0.05001581716808185
-0.0036884775304079085
-0.062125144814149984
-0.005452774909369707
-0.08203742977407459
-0.0025490089191005628
-0.030260554759508864
-0.0030251661180221313
-0.01272395222481809
-0.041559659395098654
-0.01030493924554299
-0.01881711305755859
-0.07117011999323014
-0.02062163914910552
-0.058393664957118174
-0.0019145001077654218
-0.005061623200886334
-0.001237579313041391
-0.06381787511299716
-0.08514301847788877
-0.017380555551811203
-1.200321411690432e-05
-0.025786548779513363
1.698803957402126e-05
-0.07121627566810201
-0.004614398445579056
-0.0009287938108829069
-0.04939985537485721
-0.002060653661496321
-0.01642829837234367
-0.0003306511196702368
-0.040204209203625954
-0.0006006219107837288
-0.048814078284435916
-0.006481600943508661
-0.00029025489462536873
-0.00047168070683869086
-0.05986685465087015
-0.002137860519977967
-0.04943350396313146
-0.003091965454157403
-0.08839962917742399
-0.004654095076926943
-0.02279588774165096
-0.004198101112561376
-0.0824904021017358
-0.05986111339962951
-0.03194529149472257
-0.05053788771492874
-0.022108741837484288
-0.09849136104447516
-0.02863663827788436
-0.07435391601014837
-0.015025272578030038
-0.02438586845575986
-0.02089389365390836
-3.16290702082052e-05
-0.030705717454285877
-0.00013276975651540967
-0.04225749882677671
-0.010573326416506058
-3.4463245706177117e-05
-0.00016478643349409277
-0.09034797501065873
-0.029138551355525462
-0.019844925109053214
-0.04962128982510523
-0.08775472545536306
-0.02549428256567856
-0.00434003575300871
-0.07429621778463248
-0.007881909494366847
-0.08904079783225084
-0.00833175567031793
-0.050899721000014414
-0.008864512947906439
-0.09834138922284197
-0.05457845363350153
-0.009323279249053127
-0.07654082403240095
-0.013768223316200274
-0.050849013449543054
-0.005375304609595515
-0.0005175172113968438
-0.0006346443746369413
-0.05110231400410598
-0.0004444491947506856
-0.035020585447503215
-0.0008500053002886144
-0.015770367444558335
-0.008892030334120686
-0.027902115457107687
-0.08437068487334969
-0.07847537017599433
-0.0032106244940389487
-0.04312553434215864
-0.004057680846477522
-0.01986923546036209
-0.05138513043712895
-0.015945722642151116
-0.005409559627559153
-0.08141968109452595
-0.003316304828632133
-0.012793559694022703
-0.09891873351985388
-0.07488464203724746
-0.0969615198890585
-0.05666301120332132
-0.07289741628375437
-0.009106341557527903
-0.031932551203098
-0.007052149937932446
-0.03924643844175423
-0.02464570662100281
-0.02718544930597908
-0.0014330337335132597
-0.0007409157566872305
-0.0464859101540715
-0.002533173186779797
-0.07134106000196527
-0.025353824431895773
-0.00110872517480427
-0.001600905121831449
-0.009456280138188625
-0.0032908080016155732
-0.07643535509654141
-0.008572093268122031
-0.024819206982847085
-0.012204031642938342
-0.030984209022491403
-0.04881948012928831
-0.06284811359022768
-0.03171063374522742
-0.0025615926921653135
-0.06238730463452983
-0.004117724921718763
-0.00642398364189789
-0.00022520306664580781
-0.030992519237864644
-0.00034353249233376877
-0.003488979948907642
-0.0003407339573879893
-0.03636647531220026
-0.0007794627292445003
-0.032347457050728314
-0.0967624087401732
-0.036470485866788964
-0.049393512601075766
-0.055641711408753215
-0.1007448763960114
-0.04978413403269161
-0.001018855016580166
-0.04470495267188158
-0.0016516601814553884
-0.08326243356468047
-0.009901044848080527
-0.060059977901557496
-0.011221533541804433
-0.054818248676800956
-0.0002838384263492256
-0.025247238907953627
-0.0006113336489052746
-0.06580322224664292
-0.025724772240006855
-0.09551228525312902
-0.07126414251548932
-0.03833172205122824
-0.043210301987150077
-0.09704967331919961
-0.033128499561718386
-0.040052070794379356
-0.06778738943846352
-0.042270522043551945
-0.044543093295602486
-0.016991376105486768
-0.021196867896883017
-0.031642855926814324
-0.083826654295391
-0.09262023920803444
-0.010242904301777643
-7.378690554894566e-05
-0.030780043194474162
-0.00017955226019291382
-0.039878368782904836
-0.005214921689314216
-7.901727219852826e-05
-0.0002090683014762531
-0.042886758054506945
-0.051766644036543664
-0.05586152109895459
-0.012076027843857636
-0.01882277881013131
-0.024278619512185448
-0.006126220776474702
-0.08762657259853997
-0.012447482136571267
-0.08138249942178653
-0.015276387999227843
-0.0037785819348100493
-0.0030287905290816474
-0.03732326449357933
-0.00206741202419976
-0.000428910938733026
-0.00038362309696962117
-0.003075322014939831
-0.0005552108862044078
-0.03550147243145276
-0.0011254205071859831
-0.012683670158671664
-0.005205045800569708
-0.08760410130570909
-0.014383437990971528
-0.029881674546404106
-0.010249098728920887
-0.09221325537642615
-0.005630327442876542
-0.018879201735385844
-0.013508888856393437
-0.07380228054738174
-0.017195894868207013
-0.06640664411989808
-0.015924688959422704
-0.000769102483758131
-0.001120905873764899
-0.08583669276039502
-0.032837678222363643
-0.0006544168462036912
-0.04554293659000861
-0.0011405264748169015
-0.026740884416776623
-0.0031283700397785686
-0.06743814857509832
-0.005224938514751721
-0.014910229633720953
9.502553278463046e-06
-0.023559384882706577
-2.5859610560049365e-05
-0.006833559149281142
-0.02742974707695252
-1.959720227675738e-05
1.3495222826735579e-05
-0.08269580783341417
-0.05816820692493619
-0.0061388868582059365
-0.06720658504956409
-0.008647181634895078
-0.07191426581942782
-0.012084512097260164
-0.0018951460772251914
-0.0018353732257556444
-0.09142988977382394
-0.019608080920952228
-0.06095479219540731
-0.01839206695103977
-0.01123489213162811
-0.02012627791038204
-0.040292093359658186
-0.027824396372495692
-0.023648489432747253
-0.0090508407192576
-0.021244951060579876
-0.010776081701942563
-0.0020673251055436602
-0.06350784432242035
-0.004214131516540534
-0.08104029066626986
-0.05047241700761842
-0.06392602510639045
-0.07778786311575822
-0.07328468008957816
-0.01850652471878211
-0.022956847676560678
-0.03814189981219951
-0.006006842884883043
-0.07692745037346196
-0.00987360174330935
-0.013994995858581162
-0.009524274543789662
-0.03443902248813509
-0.1012394395260192
-0.04965766052852463
-0.07292153010055588
-0.006755438413908404
-0.06096942546467614
-0.008595433933380255
-0.0015044305809848283
-0.0004225571335588443
-0.03489044433581389
-0.0010625745855708205
-0.07968626001584374
-0.0775889198698142
-0.07973197555473324
-0.03949368980182935
-0.035231836894627715
-0.019722825092606127
-0.044159212063523474
-0.09185736667342083
-0.09004333365082719
-0.08631063578795799
-0.0035350094670333707
-0.028214762266272436
-0.0037079667857228445
-0.08806301556134283
-0.004668501248275396
-0.041187713862469603
-0.005242063250422446
-0.052008070374598904
-0.0024534458361694603
-0.055070446813371844
-0.0036335560685540587
-0.024365048614809502
-0.0011840801670603071
-0.05327365250615521
-0.0020610289156531725
-0.0328146340136822
-0.013850988082960434
-0.029839990636303895
-0.09772118861825736
-0.014272973318663375
-0.06656185229673217
-0.01596813379487501
-0.0494450539340773
-0.02685965038306901
-0.0037571068914819534
-0.00021755015057168829
-0.02783775776823524
-0.0003446049022334722
-0.03839058863528568
-0.038567109353990554
-0.07132517461828507
-0.01592278167498509
-0.001480506306392468
-0.05548929018020429
-0.002459060139927058
-0.0114802633947659
-0.04909372196995587
-0.010831768455207927
-0.034985869181557785
-0.00015291295303804863
-0.0343494846216482
-0.00037842694011078426
-0.0346737932681678
-0.0020435467802080607
-0.00025024758692789094
-0.0002907103270284661
-0.000944366585455325
-0.00037214762641073527
-0.03286717676710668
-0.0010767670726139636
-0.006397462991694237
-0.0015137807863039585
-0.05808960014944443
-0.00355861259210867
-0.010906250081101349
3.571852114221921e-06
-0.01350306509708629
5.352577417011587e-06
-0.08219991185945245
-0.02798952692255718
-0.015763807461884497
-0.040025392437568884
-0.06207660479863139
-0.0006411292685130383
-0.02935892968421966
-0.0011156447653761826
-0.03197382560437101
-0.002361999051191999
-0.00010217782812612543
-0.00019070245153381506
-0.008812925077650401
-0.018077338923324974
-0.028743249613901744
-0.09775062021645535
-0.053597654767499926
-0.06433136652450613
-0.006938844368898805
-0.002105092292090133
-0.0015266215069120815
-0.0936231045328552
-0.10019309995998017
-0.07805320667440172
-0.02436898555380661
-0.001833418349380899
-0.002270042427586501
-0.059709049707148645
-0.0007318499214110954
-0.008957968589831496
-0.0009251082621063285
-0.08769921472931845
-0.08900724140999619
-0.019359483575492692
-0.0005464764286005888
-0.04469691648443104
-0.0009526801036618337
-0.056014232320501414
-0.003358221057691803
-0.0014507398110158998
-0.05962613238460568
-0.0043998914026746015
-0.03436126569636399
-0.0014270246886407421
-0.0005952608256342084
-0.0003783039187183362
-0.0861852813601972
-0.06594956156164232
-0.08285770845124697
-0.04636462756554987
-0.08491796956975338
-0.007853862300032018
-0.0831120483194103
-0.0038514327791422513
-0.012487394837754094
-0.07278981973371239
-0.04640982245369495
-0.020157762242169943
-0.030351427997668518
-0.09989884725341905
-0.016875662710706285
-0.02315347795721473
-0.009924582231275288
-2.2842936257805543e-05
-5.511259426133591e-06
-6.977798726665445e-05
-0.029821647398725882
-0.003849436724770649
-0.026793569888652894
-8.633495002086753e-05
-0.0245500742313404
-0.05470493608506823
-0.019219002168740493
-0.06411433382729245
-0.0646068171735119
-0.017797219295125802
-0.042025897652094316
-0.012690487962992169
-0.07980480463317877
-0.05638173255007903
-0.07586454856762319
-0.0020486048687527146
-0.0360831586029688
-0.00274027204471599
-0.09463709112280637
-0.07069794453313433
-0.0031787865485556903
-0.06801447441332883
-0.00203507290346961
-0.04932226030235769
-0.04370149226256073
-0.004279626128794721
-0.0028819282088361244
-0.01004870089031503
-0.02624916784136612
-0.0067645316451117885
-0.09150222182175505
-0.0033311846997529887
-0.0666778240134477
-0.0018476279812154842
-0.0067433260647756415
-0.02864884643895676
9.054111945843215e-06
-0.023596874091247787
-5.9823363608081456e-05
-0.0037169038191105855
-8.285554149921864e-05
-0.02345958923935942
-0.00015707158081258916
-0.022702477932325972
-0.0230803522490938
-0.06958072105198339
-0.005513632809255575
-6.178906752814615e-05
-0.02507990367254066
-0.00013464775701199159
-0.03046335048519101
-0.002585986875618939
-4.994312931546053e-05
-0.00013148019854979134
-0.0664695868279392
-0.04579826153782023
-0.0014114465306964354
-0.05008799075339524
-0.002225565937884857
-0.014587501380510718
-0.004315451568568496
-0.08035622186769148
-0.010114961173295483
-0.06789960661093948
-0.004341379587516971
-0.056299400273774655
-0.005789640412591212
-0.00985908093895223
-0.0374550638500651
-0.008651126332928336
-0.055507278569581396
-0.09130121227335239
-0.09083624505016541
-0.02326764473239248
-0.044385118254728934
-0.015567908603103038
-0.041797362262045404
-0.01689038146691224
-2.114871414877792e-05
-0.00014791090273794197
-0.042629894954970916
-0.0038348759451797792
-0.06559939681303542
-0.0058908317005680905
-0.08423728441290138
-0.0051608666371077295
-0.04719678222476741
-0.006027928290635054
-0.03367954863174844
-0.08535656894192258
-0.06478711668643215
-0.03458890956189821
-0.0332311570115193
-0.09411088666152463
-0.0005299611644677942
-0.00012610793809814764
-0.02032188956350742
-0.00028392195772216093
-0.05774754712092062
-0.09040094523493142
-0.029847415296849512
-0.05359198853759041
-0.034436587338740034
-0.005203886435646186
1.3584594086701565e-06
-0.008849789530526085
-0.019708181491737694
-0.01704786696834704
7.113809814990677e-06
9.153355704627017e-06
2.1948575741288447e-06
-0.07064676533054139
-0.005531645856358075
-0.0060836950009520475
-0.028284939140621627
-0.022641220224028064
-0.005337003275468696
-0.00483484435126178
-0.10048142922205275
-0.05687559506665253
-0.016040012805049176
-0.05055611487603149
-0.013735101012334675
-0.04311376111005099
-0.09780262769784352
-0.04363789073482934
-0.0024201987372253044
-0.05809500536092635
-0.0037266539707934187
-0.09493056077224703
-0.011807929683701155
-0.07660390128574976
-0.016132783213289804
-0.09844349712708925
-0.05229152674559564
-0.0068613211739160206
-0.07210054049562717
-0.01017183752932355
-0.04976414406609317
-0.014923965702240477
-0.00011204166554099511
-0.0003190132770533234
-0.08214343809411595
-0.022063712785856258
-0.002662449062111247
-0.0028298721408323855
-0.07746890199816632
-0.03327098668310845
-0.0658342215065674
-0.09660054657061766
-0.0252432349995817
-0.014953733318809222
-0.02671793271776801
-0.07849001527044015
-0.043814446810885595
-0.019196118671299695
-0.010963279664519671
-0.03241586279770759
-0.00779212716106055
-0.04185094352309714
-0.007588937606057801
-0.021128925198078203
-0.004543452646965847
-0.009037180966209776
-0.07632937466883777
-0.0872267125664574
-0.03394069393905942
-0.0038872423651109596
-0.0042542913968503585
-0.020702209736297446
-0.0002319894506687073
-0.03876600781521072
-0.0004657095649344271
-0.050557567789413116
-0.008586234814683489
-0.0002275747875268541
-0.00043522373540247366
-0.05497732324681418
-0.026254799714266874
-0.07503171646738392
-0.01799959365342983
-0.006740579169974077
-0.01681447679856002
-0.029039006153344222
-0.00109558517401023
-0.0002657144495863057
-0.00022762528009002503
-0.09416500816304868
-0.01893230017980793
-0.03274941555374982
-6.252771299286238e-05
-0.00018397441058963285
-0.08112372162516043
-0.006881609659296491
-0.05529340806230443
-0.008124396382983632
-0.06502320586704355
-0.032119591481362855
-0.004478896458450251
-0.07312753655631107
-0.007518882174575213
-0.08389733682316897
-0.005022371952005795
-0.015241868379274808
-0.00350332510027399
-0.09997292291704185
-0.04869770516207402
-0.09645066655323335
-0.061439705436417205
-0.00045697012027742513
-0.021390113592964007
-0.0008274581015000567
-0.02243864145007758
-0.008309748985286759
-0.05456325292743375
-0.00991752988755576
1.985402684791842e-06
-0.02419636760060539
-3.503113329878829e-05
-0.024269751716318847
-0.003549228713666237
9.37895774635488e-06
-2.061648246418704e-05
-0.09277472812721439
-0.017623670451563177
-0.008862985743246446
-0.025244393559423216
-0.06015854568157764
-0.0009061826704798849
-0.03722720520599096
-0.0014803000433627842
-0.0299704156849366
-0.0011515705148298391
-0.002358323808092538
-0.06416567286850805
-0.05813467992313117
-0.010870943774620981
-0.05443464525413563
-0.011175773922143457
-0.0010695430379649362
-0.000146292708254626
-0.023680631292529637
-0.00030699844837866217
-0.087438062072881
-0.07585521480256359
-0.07974957844829826
-0.020168393528083823
-0.0028473352194648615
-0.06748550392501813
-0.005106081211910665
-0.060522039668345955
-0.0011230660181615869
-0.007366673283130325
-0.001111998654667618
-0.032639271891859396
-7.036271460945425e-05
-0.031403305178890756
-0.00023394083066680048
-0.04943046460954501
-0.04086387372276238
-0.0004060432201840394
-0.03932274758261703
-0.000781622570321314
-0.09957967303568865
-0.030418075535023997
-0.005894443262987317
-0.010644265607367247
-0.05016177651811591
-0.00023636649517960176
-0.028849603910639357
-0.0005398826239314226
-0.010896117744710974
-0.006591110196332413
-0.023326572775480354
-0.032492666276499264
-0.015311196824071446
-0.0006936503639608106
-0.04864141647233905
-0.0014023127754125206
-0.01854211863642587
-0.0006980988006757516
-3.664427773573219e-05
-7.417390020783584e-05
-0.008497806458316774
-0.0161923992831631
-0.058671221238710033
-0.018662191355463854
-0.031129525236031314
-0.08476087996545002
-0.03586967659275726
-0.0464038513958062
-0.009304622372944263
-0.014851342970928992
-0.0013606663564097298
-0.00010020478562153319
-0.021271476158558424
-0.00018292198235098949
-0.02172803367719626
-0.022410703113695665
-0.010091991985231384
-0.025608208019841566
-0.04884943160042333
-0.02148626620585441
-0.00011134769991941056
-0.000330602020571956
-0.027945822177933795
-0.09655109703262567
-0.009036445760851587
-0.0027401583029442616
-0.07107026186017668
-0.006701669900681621
-0.07680705295513016
-0.06283269404497459
-0.030728859511217295
-0.08031631537301816
-0.01620182192026186
-0.06246756729799224
-0.016491958583671317
-0.009325290753462195
-0.07262552404920003
-0.01280357701945715
-0.0621089489771314
-0.03448948530029161
-0.06996829510777829
-0.000564490436961608
-0.00020758866935322568
-0.02474245939001427
-0.0005761196839057279
-0.013644835310300679
-0.004835474252970558
-0.08535933472302576
-0.01232500116245318
-0.07527869768569855
-0.05868203498576815
-0.02924600168513492
-0.015645237640431946