# vtk DataFile Version 1.0
2D Simulation C++
ASCII
DATASET UNSTRUCTURED_GRID
FIELD FieldData 1
NODES 1 2 int
2209 4256

POINTS 2209 double
0.0 0.0 0.0
0.0 1.0 0.0
1.0 1.0 0.0
1.0 0.0 0.0
0.0 0.02500000037252903 0.0
0.0 0.05000000074505806 0.0
0.0 0.07500000298023224 0.0
0.0 0.10000000149011612 0.0
0.0 0.125 0.0
0.0 0.15000000596046448 0.0
0.0 0.17499999701976776 0.0
0.0 0.20000000298023224 0.0
0.0 0.22499999403953552 0.0
0.0 0.25 0.0
0.0 0.2750000059604645 0.0
0.0 0.30000001192092896 0.0
0.0 0.32499998807907104 0.0
0.0 0.3499999940395355 0.0
0.0 0.375 0.0
0.0 0.4000000059604645 0.0
0.0 0.42500001192092896 0.0
0.0 0.44999998807907104 0.0
0.0 0.4749999940395355 0.0
0.0 0.5 0.0
0.0 0.5249999761581421 0.0
0.0 0.550000011920929 0.0
0.0 0.574999988079071 0.0
0.0 0.6000000238418579 0.0
0.0 0.625 0.0
0.0 0.6499999761581421 0.0
0.0 0.675000011920929 0.0
0.0 0.699999988079071 0.0
0.0 0.7250000238418579 0.0
0.0 0.75 0.0
0.0 0.7749999761581421 0.0
0.0 0.800000011920929 0.0
0.0 0.824999988079071 0.0
0.0 0.8500000238418579 0.0
0.0 0.875 0.0
0.0 0.8999999761581421 0.0
0.0 0.925000011920929 0.0
0.0 0.949999988079071 0.0
0.0 0.9750000238418579 0.0
0.02500000037252903 1.0 0.0
0.05000000074505806 1.0 0.0
0.07500000298023224 1.0 0.0
0.10000000149011612 1.0 0.0
0.125 1.0 0.0
0.15000000596046448 1.0 0.0
0.17499999701976776 1.0 0.0
0.20000000298023224 1.0 0.0
0.22499999403953552 1.0 0.0
0.25 1.0 0.0
0.2750000059604645 1.0 0.0
0.30000001192092896 1.0 0.0
0.32499998807907104 1.0 0.0
0.3499999940395355 1.0 0.0
0.375 1.0 0.0
0.4000000059604645 1.0 0.0
0.42500001192092896 1.0 0.0
0.44999998807907104 1.0 0.0
0.4749999940395355 1.0 0.0
0.5 1.0 0.0
0.5249999761581421 1.0 0.0
0.550000011920929 1.0 0.0
0.574999988079071 1.0 0.0
0.6000000238418579 1.0 0.0
0.625 1.0 0.0
0.6499999761581421 1.0 0.0
0.675000011920929 1.0 0.0
0.699999988079071 1.0 0.0
0.7250000238418579 1.0 0.0
0.75 1.0 0.0
0.7749999761581421 1.0 0.0
0.800000011920929 1.0 0.0
0.824999988079071 1.0 0.0
0.8500000238418579 1.0 0.0
0.875 1.0 0.0
0.8999999761581421 1.0 0.0
0.925000011920929 1.0 0.0
0.949999988079071 1.0 0.0
0.9750000238418579 1.0 0.0
1.0 0.9750000238418579 0.0
1.0 0.949999988079071 0.0
1.0 0.925000011920929 0.0
1.0 0.8999999761581421 0.0
1.0 0.875 0.0
1.0 0.8500000238418579 0.0
1.0 0.824999988079071 0.0
1.0 0.800000011920929 0.0
1.0 0.7749999761581421 0.0
1.0 0.75 0.0
1.0 0.7250000238418579 0.0
1.0 0.699999988079071 0.0
1.0 0.675000011920929 0.0
1.0 0.6499999761581421 0.0
1.0 0.625 0.0
1.0 0.6000000238418579 0.0
1.0 0.574999988079071 0.0
1.0 0.550000011920929 0.0
1.0 0.5249999761581421 0.0
1.0 0.5 0.0
1.0 0.4749999940395355 0.0
1.0 0.44999998807907104 0.0
1.0 0.42500001192092896 0.0
1.0 0.4000000059604645 0.0
1.0 0.375 0.0
1.0 0.3499999940395355 0.0
1.0 0.32499998807907104 0.0
1.0 0.30000001192092896 0.0
1.0 0.2750000059604645 0.0
1.0 0.25 0.0
1.0 0.22499999403953552 0.0
1.0 0.20000000298023224 0.0
1.0 0.17499999701976776 0.0
1.0 0.15000000596046448 0.0
1.0 0.125 0.0
1.0 0.10000000149011612 0.0
1.0 0.07500000298023224 0.0
1.0 0.05000000074505806 0.0
1.0 0.02500000037252903 0.0
0.9750000238418579 0.0 0.0
0.949999988079071 0.0 0.0
0.925000011920929 0.0 0.0
0.8999999761581421 0.0 0.0
0.875 0.0 0.0
0.8500000238418579 0.0 0.0
0.824999988079071 0.0 0.0
0.800000011920929 0.0 0.0
0.7749999761581421 0.0 0.0
0.75 0.0 0.0
0.7250000238418579 0.0 0.0
0.699999988079071 0.0 0.0
0.675000011920929 0.0 0.0
0.6499999761581421 0.0 0.0
0.625 0.0 0.0
0.6000000238418579 0.0 0.0
0.574999988079071 0.0 0.0
0.550000011920929 0.0 0.0
0.5249999761581421 0.0 0.0
0.5 0.0 0.0
0.4749999940395355 0.0 0.0
0.44999998807907104 0.0 0.0
0.42500001192092896 0.0 0.0
0.4000000059604645 0.0 0.0
0.375 0.0 0.0
0.3499999940395355 0.0 0.0
0.32499998807907104 0.0 0.0
0.30000001192092896 0.0 0.0
0.2750000059604645 0.0 0.0
0.25 0.0 0.0
0.22499999403953552 0.0 0.0
0.20000000298023224 0.0 0.0
0.17499999701976776 0.0 0.0
0.15000000596046448 0.0 0.0
0.125 0.0 0.0
0.10000000149011612 0.0 0.0
0.07500000298023224 0.0 0.0
0.05000000074505806 0.0 0.0
0.02500000037252903 0.0 0.0
0.5035198029394136 0.502076545577801 0.0
0.7098248948944548 0.7010546628326388 0.0
0.7010412921703139 0.292662150530898 0.0
0.2950572857266128 0.7051018945146899 0.0
0.2928648595365627 0.2952955438046021 0.0
0.7748748169238602 0.5036255617372035 0.0
0.5002693079168985 0.220527008380625 0.0
0.49034238305808303 0.7770654937755773 0.0
0.2208747260220854 0.49559708837155614 0.0
0.8264914169108007 0.8195197853811961 0.0
0.8184640990528567 0.16926133718419045 0.0
0.17853582833526188 0.8278346816265864 0.0
0.16912034786856445 0.17825490457089888 0.0
0.6413305649865375 0.5646480688238025 0.0
0.5617386832906571 0.3652098635143229 0.0
0.44014194313443344 0.6342171579104888 0.0
0.3605528056280196 0.42711018809690243 0.0
0.8434676180419036 0.642360205496469 0.0
0.642461937744978 0.15384186175579737 0.0
0.34850461443101854 0.8406573162135166 0.0
0.15342728370806175 0.3537984717543549 0.0
0.6463562136052842 0.8404315257391398 0.0
0.8410097732966859 0.3566575617462907 0.0
0.1559402929084866 0.6419844997780096 0.0
0.3566884571827636 0.15598642009465405 0.0
0.6722154190784235 0.4474794368483591 0.0
0.5820058623422604 0.6754958398463797 0.0
0.4448981373379964 0.3190565731723435 0.0
0.326665794951416 0.555212928139399 0.0
0.8808807740676174 0.5295925362774544 0.0
0.5294773079354346 0.11152547984180006 0.0
0.46561612885826953 0.884593294535521 0.0
0.11157658246267231 0.46773462054784043 0.0
0.8958842293927757 0.7403634353802708 0.0
0.7401252834364301 0.10113868689495346 0.0
0.2568775683205419 0.8955006613164409 0.0
0.10169307904141497 0.256761079664617 0.0
0.7431992124150941 0.8817443466575347 0.0
0.11662501227411301 0.7428630791653985 0.0
0.8803576927742991 0.25456529924585164 0.0
0.25448931451679735 0.11704907278739334 0.0
0.7402643280485292 0.6025861167160028 0.0
0.6073380743729271 0.24960643304780972 0.0
0.3933728625858322 0.7473232593398846 0.0
0.25247233190352725 0.39385591016925875 0.0
0.52152065438641 0.5909592341238233 0.0
0.8970080133427015 0.8843614843288661 0.0
0.8826908308042881 0.09908202141662419 0.0
0.11384044871099858 0.8978974764185491 0.0
0.09918244144731267 0.11401737549635065 0.0
0.7604426976169302 0.39082195393758523 0.0
0.23647703471761067 0.6091732324420518 0.0
0.38892473526295324 0.23474987086213492 0.0
0.8961188929056423 0.43551429727968716 0.0
0.4350432286974981 0.10051434218232616 0.0
0.5630260495664181 0.8932711879306399 0.0
0.10090607046134147 0.5625357100931146 0.0
0.7866093127931425 0.7411190576999015 0.0
0.7407071295895353 0.20963613824893373 0.0
0.2556052699053643 0.7877719718215712 0.0
0.21001269685464372 0.2559971598394029 0.0
0.7185104976268191 0.7998266449595312 0.0
0.7929647648262497 0.28157357553100926 0.0
0.20374500866886514 0.7162099883220625 0.0
0.2857135827719979 0.20015088760409572 0.0
0.5924954525425759 0.49354185209212076 0.0
0.48890273113870664 0.41078901297037496 0.0
0.4232868971072595 0.5454790576254817 0.0
0.6304202091212098 0.7572312560630411 0.0
0.6504583496244376 0.35330113181239625 0.0
0.49416620887224766 0.6916055121676196 0.0
0.35234724578640353 0.6420136283145773 0.0
0.3476899755687069 0.3467125004430094 0.0
0.9143523971180005 0.814103314558118 0.0
0.81374862535376 0.08198115078448563 0.0
0.18339098356059003 0.9149962165621336 0.0
0.08225922431452423 0.1833041798828432 0.0
0.8260832242980573 0.9084808790640526 0.0
0.08899353507218222 0.826616975120396 0.0
0.9077333009656172 0.170371603289921 0.0
0.17039727697695636 0.08950328478086243 0.0
0.696760372601505 0.5165880498719931 0.0
0.6475262320851002 0.6474377627460798 0.0
0.5108465188695936 0.30229639274576176 0.0
0.298231845016014 0.4832233815665014 0.0
0.9162227218289772 0.6060962682645749 0.0
0.6113433388045145 0.08382196180927833 0.0
0.3941067076821848 0.9188348901415102 0.0
0.08147760923446183 0.3852415669769921 0.0
0.662112688293604 0.9177475512173687 0.0
0.07904205336665293 0.6607978453247908 0.0
0.9172951495460043 0.33644601454248385 0.0
0.33662211418990756 0.07943342340154662 0.0
0.8207180356284738 0.4352439347454657 0.0
0.5649726386911392 0.8153709214463934 0.0
0.43364840340463806 0.1754621443137283 0.0
0.17655798003835452 0.5636352217679904 0.0
0.43190081052494134 0.4572549304964447 0.0
0.817423529956887 0.5682811958448704 0.0
0.5666267883010105 0.17951432511972867 0.0
0.42884128321544673 0.8175718900604003 0.0
0.17897675307571967 0.4304510570387634 0.0
0.7698720864263597 0.6663022404067132 0.0
0.6666417059962637 0.22372596462934063 0.0
0.329752155719226 0.7743109558986265 0.0
0.22445159476715387 0.33071779653199534 0.0
0.9272095123048171 0.6827432199305012 0.0
0.6828929667697368 0.07049964639905287 0.0
0.31113313375628204 0.9251376812816585 0.0
0.07246713453202216 0.30991959195463814 0.0
0.5595183783169242 0.7394639512286317 0.0
0.6006885139594221 0.418060351590328 0.0
0.37329411770772863 0.49790056932744453 0.0
0.7326666882046816 0.45729857489908216 0.0
0.4537750490893889 0.26120628493443643 0.0
0.26474232592773755 0.541526424120908 0.0
0.5856605034671435 0.6130330968711833 0.0
0.4161975068252876 0.38598200777238123 0.0
0.5702865621228564 0.5408911635356157 0.0
0.5463204408337575 0.44728617885916677 0.0
0.9321122209153511 0.49456422032633723 0.0
0.49579653159404813 0.06425621227728245 0.0
0.49995330139115857 0.9305238705297356 0.0
0.0641399179387724 0.5007779637933851 0.0
0.8438272820795693 0.49711026665853997 0.0
0.49501416732168285 0.15208793034556575 0.0
0.49744303626249914 0.8409206216866122 0.0
0.1524563231453981 0.5018505498382554 0.0
0.8429005354234137 0.696283135092142 0.0
0.6964120935008352 0.15422753934207173 0.0
0.2992756141388456 0.8425236530852371 0.0
0.15448230665010046 0.3002728193072182 0.0
0.7692221563287049 0.836448910879014 0.0
0.8337913674817454 0.22701648716949482 0.0
0.1629402554718382 0.7706115152558689 0.0
0.22639460580334764 0.1629421800428734 0.0
0.760473720778 0.3257343545155694 0.0
0.23572950487432248 0.6729349722293962 0.0
0.3245118983393465 0.2363589570156849 0.0
0.637946014204569 0.2998075378845057 0.0
[...]
POINT_DATA 2209
SCALARS Psi double
LOOKUP_TABLE default
0.0
0.0
0.0
0.0
0.0
0.0
0.0
0.0
0.0
0.0
0.0
0.0
0.0
0.0
0.0
0.0
0.0
0.0
0.0
0.0
0.0
0.0
0.0
0.0
0.0
0.0
0.0
0.0
0.0
0.0
0.0
0.0
0.0
0.0
0.0
0.0
0.0
0.0
0.0
0.0
0.0
0.0
0.0
0.0
0.0
0.0
0.0
0.0
0.0
0.0
0.0
0.0
0.0
0.0
0.0
0.0
0.0
0.0
0.0
0.0
0.0
0.0
0.0
0.0
0.0
0.0
0.0
0.0
0.0
0.0
0.0
0.0
0.0
0.0
0.0
0.0
0.0
0.0
0.0
0.0
0.0
0.0
0.0
0.0
0.0
0.0
0.0
0.0
0.0
0.0
0.0
0.0
0.0
0.0
0.0
0.0
0.0
0.0
0.0
0.0
0.0
0.0
0.0
0.0
0.0
0.0
0.0
0.0
0.0
0.0
0.0
0.0
0.0
0.0
0.0
0.0
0.0
0.0
0.0
0.0
0.0
0.0
0.0
0.0
0.0
0.0
0.0
0.0
0.0
0.0
0.0
0.0
0.0
0.0
0.0
0.0
0.0
0.0
0.0
0.0
0.0
0.0
0.0
0.0
0.0
0.0
0.0
0.0
0.0
0.0
0.0
0.0
0.0
0.0
0.0
0.0
0.0
0.0
0.0
0.0
-0.03710453511927651
-0.07108876937012294
-0.009504936917547564
-0.04557018229918517
-0.008920308502075624
-0.022565059002268475
-0.0080572679855957
-0.07735566993462277
-0.015923657953072747
-0.06373146366085197
-0.0016070714961282716
-0.03630891548376294
-0.0016351068052441436
-0.04726478063152796
-0.019690708490871428
-0.054370861228160386
-0.02160965563802782
-0.029870186461258115
-0.0036142762074003005
-0.0638942661802119
-0.004854120204841547
-0.08280475983305849
-0.005389459433218099
-0.016492235853662163
-0.003583103233389591
-0.02541878313117521
-0.07062236465021537
-0.014888030104163537
-0.03215323403480536
-0.009398657580531168
-0.0024023929320747643
-0.0678809298976172
-0.004882043228610406
-0.02720758825746196
-0.0011343724632753556
-0.050251290809564676
-0.0013396120246664518
-0.07102694006318355
-0.015479396036220705
-0.001602812731055701
-0.0014156431175284259
-0.045043806981304654
-0.009241026549582919
-0.06449464454853625
-0.012374534088201947
-0.052694553522459865
-0.041042816148725056
-0.0002322173855773882
-0.02760132310665489
-0.00025599896350839
-0.012846293034026245
-0.026375786034253477
-0.007954106788993588
-0.0039692219698065755
-0.0018989775844449205
-0.06919140861714006
-0.006012609239950574
-0.06509057111426914
-0.004267476530795868
-0.04772395750194212
-0.004435092360027247
-0.08237862694776633
-0.005226511488330102
-0.030736581239603128
-0.004361778618856821
-0.03606448005825209
-0.024641597679235672
-0.03955289592084
-0.08337008514248044
-0.01616733678412841
-0.06817012270005425
-0.04585166649142828
-0.014259221108662805
-0.027998945606784932
-0.0004223552596376711
-0.04003131735303449
-0.00047392178829172457
-0.054989113711534275
-0.014836031641430835
-0.00043103697813880626
-0.0004405383613641678
-0.03388908105946426
-0.06460514479315003
-0.014076345570012116
-0.022264381010794632
-0.008141819941782525
-0.0012739686077029185
-0.05436264230347355
-0.0018752763799185148
-0.06009313287625671
-0.005819869709201999
-0.0013679162145596023
-0.0009787391695633934
-0.010645844692972887
-0.08285510358434749
-0.005151324694867575
-0.014954916627581543
-0.028436938461501013
-0.024391496069129378
-0.005458589275037503
-0.07265552678060977
-0.00895239921338745
-0.053529364749662155
-0.006576957707495763
-0.05844294780731536
-0.007700409508012388
-0.010754232349350475
-0.0007612119197583386
-0.04790073865032033
-0.0010130048828181951
-0.07933737484140244
-0.024933955316448785
-0.0297961521946427
-0.02167147959895298
-0.010539074784377066
-0.024022921623987684
-0.058526958600163215
-0.02015903133717431
-0.04451053701116056
-0.02967002790604692
-0.002564463481992768
-0.0008874575063566215
-0.05186558921647469
-0.0021306973235101943
-0.012326859931251304
-0.0041912255865770316
-0.07702850389023631
-0.009423086506488853
-0.03965781566114816
-0.003035695857717757
-0.05788350793878191
-0.0036465704717960055
-0.07579821459581974
-0.002371916524539605
-0.02749936453657806
-0.0021911476673319593
-0.00871031916594353
-0.032301909540119904
-0.006774105205899702
-0.012108852096200813
-0.05488757223944633
-0.012933641654822857
-0.05585269117966231
-0.0014946481704227255
-0.003792004140103606
-0.0008887518729318643
-0.043084092569182046
-0.0649150150859931
-0.01726315210559719
-1.703025460947209e-05
-0.025727454593348926
-1.264627163717105e-05
-0.04567446433640707
-0.0031915127138148055
-0.0006972459865106652
-0.04764951654246678
-0.00134188719493954
-0.014345345123111145
-0.00038214010240948605
-0.03997917453376294
-0.0004377322368984224
-0.04812858649000278
-0.005952941332686551
-0.000402031758492972
-0.0003731035238621829
-0.0522380657647369
-0.002012319393184395
-0.04710076148095068
-0.002179029666776038
-0.08089962575890405
-0.0037164724464004606
-0.018857670512129266
-0.0029477193382257513
-0.06004217691086693
-0.0371196389262257
-0.01927179373046086
-0.03276048028854916
-0.013870091362004363
-0.0762364397711966
-0.017897460992073868
-0.05003667250472883
-0.009717124053491347
-0.015636607147052648
-0.02015116332179904
-0.00010170596240974442
-0.03070469281063126
-0.00011649235142354847
-0.04195080372820106
-0.01050138516345852
-0.00013542695434494274
-0.0001476430555559178
-0.06370767261214202
-0.018063529985355573
-0.01236590965502965
-0.034577293809802935
-0.0708076120288387
-0.017527614601541557
-0.00319397541618079
-0.06849041066769429
-0.005134424462744746
-0.07376863086293603
-0.006164064353410523
-0.04298386890834109
-0.005879232426908465
-0.0823685798579624
-0.03866638209533832
-0.006543091429555885
-0.06618755207840578
-0.00882771066761232
-0.04985019736272582
-0.0047032856249913735
-0.0005749571719081949
-0.00048555034165381257
-0.04835475507849071
-0.0006223988990173498
-0.0347146427455061
-0.0006615608937519886
-0.010318785540375627
-0.0059161135276681875
-0.02011771106108145
-0.05835806784476862
-0.06978292752776044
-0.002865830940361983
-0.03964441310294162
-0.0028498425761123605
-0.012806829208273418
-0.03823976699836477
-0.01009311460636708
-0.003922619682445146
-0.07520554421129495
-0.0023313775233855397
-0.009649823868365857
-0.08504157140529009
-0.05485315541976288
-0.08481390616784998
-0.034964238579552935
-0.04825852646248925
-0.0065083935775386145
-0.02524118433256633
-0.004788177242581995
-0.023495173447149756
-0.015326730513904013
-0.016858043037608777
-0.0010760900746250954
-0.0005354782327252772
-0.04508425133605326
-0.0017699244152635694
-0.06780769651977639
-0.024106472349150504
-0.0012468523964370305
-0.0012143322298651198
-0.006320346989039611
-0.002328344534637431
-0.07066122187212753
-0.005853251701794978
-0.015675789847557683
-0.007934753632734073
-0.02135147591294534
-0.029432941073266418
-0.03861623857461685
-0.024363241276060255
-0.00211615889655117
-0.05927672941573991
-0.0027527557791213477
-0.005342128621864098
-0.00023014861454237598
-0.031168781067536146
-0.00023753627610858036
-0.0026792186562863223
-0.00029043785344087195
-0.03638244325537894
-0.0005035248590639984
-0.019513136864566457
-0.07257273158287138
-0.02214561800743242
-0.029907310678203507
-0.035986758662219814
-0.07866114812367876
-0.04512457772656215
-0.0011204699358900987
-0.043734418239234345
-0.00121873871265255
-0.0658414972573147
-0.00707632787752556
-0.050316699875727365
-0.0073191705838712125
-0.05306427859650523
-0.00047241711933843306
-0.02502159051952868
-0.0004990732942113851
-0.04249746308804361
-0.015768057697100518
-0.07460604254967954
-0.04508458418662268
-0.023959707372228217
-0.027630084694781027
-0.08103088888634818
-0.020101095435455223
-0.02414565839475701
-0.04275337492864256
-0.026531226425383348
-0.02747871688435005
-0.010801114630622534
-0.013174923254529713
-0.0206245883878993
-0.057014290442125914
-0.06613695885460312
-0.009687661752073267
-0.0001211336717034194
-0.030897564600927935
-0.00013846098354929453
-0.039961563143846475
-0.005051075632281582
-0.0001738849535662052
-0.00017426784435176272
-0.02630916782028316
-0.03491253534253267
-0.03817556964833661
-0.008097947003988104
-0.012035445341058224
-0.015970700576086027
-0.004280167819256856
-0.07616391586992566
-0.00820566796992583
-0.0756616496526414
-0.01217734203272987
-0.0029883385739357705
-0.0021692289401462226
-0.037075956945508075
-0.0015744623572702947
-0.0004116685316081648
-0.0002782611434345943
-0.002284861693960962
-0.0004390133268100123
-0.03501100431480942
-0.0007164132578520141
-0.008367582916723721
-0.0036145922094303245
-0.07853069935087548
-0.009990733837664259
-0.01823176256665955
-0.006952976089170178
-0.08221609559953602
-0.0038542465854357975
-0.013782170192021182
-0.009079246687629211
-0.060040778449457335
-0.010916617071978713
-0.06399400440908216
-0.015008352404805797
-0.0009162843282679716
-0.0008697695087972446
-0.06229396731938199
-0.029070327419150305
-0.0007391680927546667
-0.04501962866002801
-0.0008380683637650857
-0.019336975157076854
-0.0024322472089314557
-0.06334729287365208
-0.0034373659964112
-0.014957745937574327
-2.200108815802119e-05
-0.023624432657403854
-2.706614946455151e-05
-0.006573059113147796
-0.027732390141469776
-2.2049232859577424e-05
-1.789753977162989e-05
-0.06963654548012121
-0.04433258404088212
-0.004647870177055207
-0.06027408858856425
-0.005649678682063671
-0.06827901399381754
-0.010170283415355459
-0.0017051680744640688
-0.001360291937462216
-0.06846149210369547
-0.012623275041021922
-0.045924955381313394
-0.011562178998300353
-0.007489474771541303
-0.013019336099956374
-0.02623078062253889
-0.01703935326364936
-0.015053440986934431
-0.006041777577051949
-0.01433612747097742
-0.0073889729061363705
-0.0015369108121080137
-0.06025201753110027
-0.0027761356477725737
-0.07307228464154698
-0.031226856261744474
-0.042389165854386256
-0.05074310894074521
-0.052977561355713264
-0.011889037554792394
-0.01438717305854329
-0.026688928225054597
-0.00436111207619438
-0.06898435152849852
-0.006409889917074776
-0.009362771795979918
-0.006314771762542409
-0.025812381572363593
-0.08332198367150559
-0.029863344140667634
-0.05806650041388714
-0.005141751135611519
-0.05378580115074063
-0.005683248340338365
-0.0010951195469623932
-0.00031340838707762065
-0.03447829512591723
-0.000695904980416895
-0.0521636466251291
-0.05124288713194441
-0.061403391104251505
-0.025769407764087454
-0.02169940285975414
-0.012337010482293803
-0.02958386762121856
-0.06492874368185242
-0.06949631529942844
-0.07929761368284814
-0.0030543280683165055
-0.024627537327460647
-0.0026382449062836858
-0.07760932328779208
-0.003868885252401522
-0.03633184476166656
-0.0036279819560292702
-0.04364509797117865
-0.0022050863835347758
-0.05242128206251889
-0.0025094288548292436
-0.01979723209501072
-0.0010987252581156335
-0.05183910924444621
-0.0014109091862626237
-0.02054393867897758
-0.008951045912618853
-0.019924973610593665
-0.07318261571177204
-0.009585980391662726
-0.05336262637963536
-0.010168559967384106
-0.030258795505161536
-0.01637615479728713
-0.0030229988401436923
-0.00020170586997887642
-0.028217132770823324
-0.00023011939885257823
-0.02335494469264315
-0.023134981088488073
-0.050117105242721956
-0.011806980746999783
-0.0012282315881108937
-0.05365371815829243
-0.0016320907398409776
-0.008023895261775322
-0.039470449990076074
-0.007061733451354477
-0.033370219533944576
-0.0002809537544564296
-0.034296748386093714
-0.0003119115688770469
-0.03492743962940055
-0.0016552120691008358
-0.0002819165993827787
-0.00022115394018545315
-0.0006967140687721918
-0.00027283023644992594
-0.03237405792725311
-0.0007217653038982071
-0.004340959619618889
-0.0011186168622898927
-0.055466628928809075
-0.0023510042833907855
-0.010757634553116362
1.4021972643252358e-06
-0.013911742829012072
2.2058288066514626e-06
-0.06202523987948541
-0.017437641281429432
-0.010023947434547808
-0.027687211710777267
-0.0592082034164434
-0.0008357981502401108
-0.0288088416329133
-0.0008587745152439528
-0.03227545596931739
-0.002105350971041239
-0.00016388997226574005
-0.0001476088742324157
-0.005940367726330642
-0.0119270152783392
-0.01857216883206559
-0.07794452074627431
-0.03232277177823594
-0.061240537190891994
-0.005385939101557442
-0.0016880284111333644
-0.0011010578537943374
-0.0796134386870048
-0.08511340296348972
-0.07347290401930355
-0.02225397900634921
-0.0018186307349768644
-0.0016855150460198876
-0.057956253424570614
-0.0008110652635385507
-0.008037945667032661
-0.0007137739219169161
-0.07403256533238141
-0.06364478308312278
-0.016601189033036347
-0.0005776547176083522
-0.04416512008980805
-0.0006824539276452906
-0.033941300894232376
-0.002358507792022975
-0.0010440814221578695
-0.056887716205582854
-0.003074698617973277
-0.034210880233510814
-0.0010180611402733027
-0.0004962728510838444
-0.0002698596305247763
-0.058630036920353554
-0.043455478243868896
-0.05831717281486067
-0.02775574803004454
-0.06740491547634211
-0.005364925919248179
-0.07606498298650631
-0.0026931639338118483
-0.008925217277869319
-0.05050962093786713
-0.02780176844828594
-0.012714771979051838
-0.01921962962755433
-0.08329262361246655
-0.010877104812522425
-0.014634547877358683
-0.009627450926424834
-6.210265498604951e-05
-5.748765721012114e-05
-6.146681936281356e-05
-0.03017653503021524
-0.003721213665620707
-0.027007452780721624
-7.124000009345869e-05
-0.015409361589087425
-0.03982375962087597
-0.012009550108723331
-0.040094665009184904
-0.039955824496724385
-0.011606929793464884
-0.031145284855083256
-0.008184677163641052
-0.05864888198179733
-0.035701253048418556
-0.06967219597961549
-0.002017310854397509
-0.03387476424872752
-0.0019918182558403513
-0.07743344240108198
-0.06117851552544137
-0.002826347894009291
-0.061104371378384904
-0.0019912738379517674
-0.04582755685278808
-0.04149063591176292
-0.0029611516567378386
-0.0020585841609787256
-0.006988431726429498
-0.01998810485650381
-0.004597419786392983
-0.07425380487272451
-0.002436581386891459
-0.0630680286760701
-0.0013191257890609342
-0.004908551839396662
-0.028369270765467643
-5.048374650827857e-05
-0.023521089120323576
-6.009305860442289e-05
-0.003315988520578839
-9.651431537575538e-05
-0.0240303650744617
-0.000108604087267106
-0.014329200308807223
-0.014329050780916067
-0.051622062684759086
-0.005119745664711233
-8.718546367243226e-05
-0.02537617194349511
-0.0001002792191377632
-0.03101708238350653
-0.0024379813906716917
-0.00011172232964702188
-0.00010655592490894366
-0.042418800806685156
-0.03962336211320606
-0.0014087246187496657
-0.04867849670908194
-0.001576386245181231
-0.00960852578506265
-0.0030585777436032257
-0.07324945093644653
-0.00677610217445713
-0.05621411067310235
-0.003586243835747354
-0.051505652078139015
-0.0039019866595333594
-0.00703160429186679
-0.029834018794940458
-0.0057544648173117625
-0.03550408009706133
-0.0824736055287635
-0.08229627852174741
-0.014716238490799229
-0.03180832892703317
-0.009894107648173795
-0.04109556110842881
-0.0166916070877237
-0.000123547072563845
-0.0001364032222263572
-0.03250171550305388
-0.0030601047819201854
-0.06098675336836167
-0.003906987086885831
-0.07247288921226615
-0.0041860172952261675
-0.04185667690447718
-0.0041183823587327955
-0.020248485762555616
-0.0584746220353338
-0.041181350662607086
-0.020788069651780944
-0.020640900380203737
-0.08007420415170839
-0.0004161646394850187
-9.470668256829717e-05
-0.020563469852526897
-0.00017756102287027015
-0.038420564375658474
-0.07984020935585179
-0.018119548936960633
-0.03267219994897403
-0.02097935136250086
-0.004988768790498862
-1.072397015596672e-06
-0.009125599321723951
-0.0200436181904431
-0.01702750923737714
3.9678592428037164e-07
5.996612469890164e-07
-1.0551590985075836e-06
-0.04791583194427212
-0.004338773732481189
-0.004576710533474974
-0.023455756705809364
-0.018076763410077516
-0.003690427814706541
-0.0033586888529079434
-0.07871950734636717
-0.03483274390938207
-0.01065626982818957
-0.03882946767778655
-0.008818133345829293
-0.026038987607179497
-0.07875804842904616
-0.03545158817013848
-0.0021291258084934995
-0.055363413891877614
-0.0025339603620785807
-0.06934137064160971
-0.00803732806256835
-0.06393195271702572
-0.010293841853250262
-0.07466983681054257
-0.03817164514787681
-0.005046230224759268
-0.06415827165207862
-0.006589715404240611
-0.048951186670785726
-0.014648891147785514
-0.0002584661714295252
-0.0002742482093742369
-0.07664832780834349
-0.01925408904984861
-0.0023946567513527845
-0.0020648705466246174
-0.05176637339265817
-0.020394994316382854
-0.04578116641710874
-0.08320469946401264
-0.01564752387290524
-0.009652587888459095
-0.01728534010418072
-0.053413824955934
-0.027852879720447973
-0.012395411710472357
-0.007180971381471977
-0.0232469255528775
-0.005830223035410668
-0.034855625416006356
-0.005089411464447466
-0.014152929514829804
-0.0032649214532570275
-0.005922978408789683
-0.06031542373585669
-0.07904321485095733
-0.029969479727675146
-0.0033213410686614066
-0.002980575350075126
-0.019024161765002864
-0.00031471396005871573
-0.03865321176798531
-0.00035576620724189897
-0.04973297210912975
-0.008291170320046042
-0.0003654919759235114
-0.0003549520577509378
-0.034274139153774245
-0.016095164809733373
-0.048496028695290704
-0.011651387027083777
-0.004616170184767373
-0.01149324311656043
-0.02902576730382093
-0.0008071259318009155
-0.0002559844962607776
-0.00016493886713325894
-0.06936887051911095
-0.018156673809610942
-0.032733428635795134
-0.00013510743791819745
-0.0001533696469433229
-0.0665741471663812
-0.005266413280667442
-0.048139065788487444
-0.005420271214703048
-0.04029172768202676
-0.022847286854942025
-0.0033573798795048107
-0.0672410631055028
-0.004924735900860992
-0.07738550787426837
-0.003752497654354158
-0.011775040298576848
-0.002484567413897838
-0.08198599641686384
-0.031089110552017962
-0.08488728044036213
-0.05945349546576756
-0.0006526279158015844
-0.020922989252212063
-0.0006651166866371048
-0.013897233382108335
-0.005741812019341465
-0.052615896203605725
-0.009793444258019961
-2.722488919954462e-05
-0.02444898422278241
-3.276398653770007e-05
-0.024443728147660975
-0.0034210595010448815
-1.749539299920802e-05
-2.1515588391112664e-05
-0.06720396200191885
-0.011412458637686878
-0.005892900536404655
-0.017852743447757013
-0.05605493017162928
-0.0010586162530075301
-0.03636272088571423
-0.0011019492682115266
-0.018447311963491645
-0.0008831338498184431
-0.0015466386965766262
-0.0453724002046147
-0.03869313476765749
-0.007691158368352446
-0.04457912932651117
-0.007288153688922615
-0.0008354710204132148
-0.00011838072184726506
-0.02414517892153735
-0.00019191763978287698
-0.06580309784607571
-0.0698367124357513
-0.07186979996334802
-0.014240257328987128
-0.0021887634198368006
-0.06347647175636129
-0.0033476408942162035
-0.05843019985018632
-0.001066828885007904
-0.006166264923124278
-0.0008349025779783975
-0.03156554093028391
-0.00018093950360268578
-0.03136095613141354
-0.00020200288434369998
-0.03352917502880893
-0.0383101694928724
-0.0005514357100466554
-0.03904975830619741
-0.0006013483434861453
-0.08453315559683847
-0.020539170268895603
-0.004223096849764824
-0.006951829959543467
-0.04838922831036194
-0.000415646125926487
-0.028706935651266183
-0.00044425247316191814
-0.0074406856589913075
-0.0044763970253515
-0.017290357081753617
-0.021155686576275333
-0.012427629304168407
-0.0006644926416167535
-0.04779801992249579
-0.0009673297832989153
-0.019137790683607752
-0.0005690367195734906
-6.22235423922779e-05
-5.592886788924897e-05
-0.005784907125269431
-0.010538132650772303
-0.03571853383724542
-0.011789735119215673
-0.020005071972900006
-0.058913762688085666
-0.021506287841893346
-0.031829736526207096
-0.006446876260060607
-0.009549853329354294
-0.0011136391065580391
-8.858988200868912e-05
-0.022000775640061344
-0.00011983815997212482
-0.013477177636213132
-0.014230085377286544
-0.006643200309042651
-0.01754131129885235
-0.04768812623817707
-0.0213639425772559
-0.0002622647623999749
-0.00028290781470196913
-0.017219984049271803
-0.08407012973968513
-0.006043630241632901
-0.0019779467213766107
-0.06632555601622804
-0.004489267546228893
-0.04968612056305356
-0.045821305832912475
-0.018837350920827983
-0.06986755043044347
-0.010714116546449076
-0.048792505696999874
-0.010428774134495463
-0.006606881985623885
-0.062444306694085495
-0.008250250421794498
-0.0408469888362104
-0.021709086362048814
-0.05018214329978649
-0.0004341716367272216
-0.00015142596467416738
-0.0248716703533286
-0.0003773264763887283
-0.00895796187464084
-0.0033726453635369706