# vtk DataFile Version 1.0
2D Simulation C++
ASCII
DATASET UNSTRUCTURED_GRID
FIELD FieldData 1
NODES 1 2 int
2209 4256

POINTS 2209 double
0.0 0.0 0.0
0.0 1.0 0.0
1.0 1.0 0.0
1.0 0.0 0.0
0.0 0.02500000037252903 0.0
0.0 0.05000000074505806 0.0
0.0 0.07500000298023224 0.0
0.0 0.10000000149011612 0.0
0.0 0.125 0.0
0.0 0.15000000596046448 0.0
0.0 0.17499999701976776 0.0
0.0 0.20000000298023224 0.0
0.0 0.22499999403953552 0.0
0.0 0.25 0.0
0.0 0.2750000059604645 0.0
0.0 0.30000001192092896 0.0
0.0 0.32499998807907104 0.0
0.0 0.3499999940395355 0.0
0.0 0.375 0.0
0.0 0.4000000059604645 0.0
0.0 0.42500001192092896 0.0
0.0 0.44999998807907104 0.0
0.0 0.4749999940395355 0.0
0.0 0.5 0.0
0.0 0.5249999761581421 0.0
0.0 0.550000011920929 0.0
0.0 0.574999988079071 0.0
0.0 0.6000000238418579 0.0
0.0 0.625 0.0
0.0 0.6499999761581421 0.0
0.0 0.675000011920929 0.0
0.0 0.699999988079071 0.0
0.0 0.7250000238418579 0.0
0.0 0.75 0.0
0.0 0.7749999761581421 0.0
0.0 0.800000011920929 0.0
0.0 0.824999988079071 0.0
0.0 0.8500000238418579 0.0
0.0 0.875 0.0
0.0 0.8999999761581421 0.0
0.0 0.925000011920929 0.0
0.0 0.949999988079071 0.0
0.0 0.9750000238418579 0.0
0.02500000037252903 1.0 0.0
0.05000000074505806 1.0 0.0
0.07500000298023224 1.0 0.0
0.10000000149011612 1.0 0.0
0.125 1.0 0.0
0.15000000596046448 1.0 0.0
0.17499999701976776 1.0 0.0
0.20000000298023224 1.0 0.0
0.22499999403953552 1.0 0.0
0.25 1.0 0.0
0.2750000059604645 1.0 0.0
0.30000001192092896 1.0 0.0
0.32499998807907104 1.0 0.0
0.3499999940395355 1.0 0.0
0.375 1.0 0.0
0.4000000059604645 1.0 0.0
0.42500001192092896 1.0 0.0
0.44999998807907104 1.0 0.0
0.4749999940395355 1.0 0.0
0.5 1.0 0.0
0.5249999761581421 1.0 0.0
0.550000011920929 1.0 0.0
0.574999988079071 1.0 0.0
0.6000000238418579 1.0 0.0
0.625 1.0 0.0
0.6499999761581421 1.0 0.0
0.675000011920929 1.0 0.0
0.699999988079071 1.0 0.0
0.7250000238418579 1.0 0.0
0.75 1.0 0.0
0.7749999761581421 1.0 0.0
0.800000011920929 1.0 0.0
0.824999988079071 1.0 0.0
0.8500000238418579 1.0 0.0
0.875 1.0 0.0
0.8999999761581421 1.0 0.0
0.925000011920929 1.0 0.0
0.949999988079071 1.0 0.0
0.9750000238418579 1.0 0.0
1.0 0.9750000238418579 0.0
1.0 0.949999988079071 0.0
1.0 0.925000011920929 0.0
1.0 0.8999999761581421 0.0
1.0 0.875 0.0
1.0 0.8500000238418579 0.0
1.0 0.824999988079071 0.0
1.0 0.800000011920929 0.0
1.0 0.7749999761581421 0.0
1.0 0.75 0.0
1.0 0.7250000238418579 0.0
1.0 0.699999988079071 0.0
1.0 0.675000011920929 0.0
1.0 0.6499999761581421 0.0
1.0 0.625 0.0
1.0 0.6000000238418579 0.0
1.0 0.574999988079071 0.0
1.0 0.550000011920929 0.0
1.0 0.5249999761581421 0.0
1.0 0.5 0.0
1.0 0.4749999940395355 0.0
1.0 0.44999998807907104 0.0
1.0 0.42500001192092896 0.0
1.0 0.4000000059604645 0.0
1.0 0.375 0.0
1.0 0.3499999940395355 0.0
1.0 0.32499998807907104 0.0
1.0 0.30000001192092896 0.0
1.0 0.2750000059604645 0.0
1.0 0.25 0.0
1.0 0.22499999403953552 0.0
1.0 0.20000000298023224 0.0
1.0 0.17499999701976776 0.0
1.0 0.15000000596046448 0.0
1.0 0.125 0.0
1.0 0.10000000149011612 0.0
1.0 0.07500000298023224 0.0
1.0 0.05000000074505806 0.0
1.0 0.02500000037252903 0.0
0.9750000238418579 0.0 0.0
0.949999988079071 0.0 0.0
0.925000011920929 0.0 0.0
0.8999999761581421 0.0 0.0
0.875 0.0 0.0
0.8500000238418579 0.0 0.0
0.824999988079071 0.0 0.0
0.800000011920929 0.0 0.0
0.7749999761581421 0.0 0.0
0.75 0.0 0.0
0.7250000238418579 0.0 0.0
0.699999988079071 0.0 0.0
0.675000011920929 0.0 0.0
0.6499999761581421 0.0 0.0
0.625 0.0 0.0
0.6000000238418579 0.0 0.0
0.574999988079071 0.0 0.0
0.550000011920929 0.0 0.0
0.5249999761581421 0.0 0.0
0.5 0.0 0.0
0.4749999940395355 0.0 0.0
0.44999998807907104 0.0 0.0
0.42500001192092896 0.0 0.0
0.4000000059604645 0.0 0.0
0.375 0.0 0.0
0.3499999940395355 0.0 0.0
0.32499998807907104 0.0 0.0
0.30000001192092896 0.0 0.0
0.2750000059604645 0.0 0.0
0.25 0.0 0.0
0.22499999403953552 0.0 0.0
0.20000000298023224 0.0 0.0
0.17499999701976776 0.0 0.0
0.15000000596046448 0.0 0.0
0.125 0.0 0.0
0.10000000149011612 0.0 0.0
0.07500000298023224 0.0 0.0
0.05000000074505806 0.0 0.0
0.02500000037252903 0.0 0.0
0.5054698132344346 0.5032899860326425 0.0
0.7111824580840657 0.7027333567790666 0.0
0.7025496413927839 0.29462368355724133 0.0
0.29658110485587463 0.706870050757062 0.0
0.29463893971635496 0.29698379820522025 0.0
0.7764678680746755 0.5054569889176309 0.0
0.5020980070901105 0.22198092400480418 0.0
0.49205229040613857 0.7782443119012536 0.0
0.22250442491723302 0.49699886653278785 0.0
0.8285311038561344 0.820954625305865 0.0
0.8198845480868879 0.17125060611023638 0.0
0.18032688444851402 0.8297037005783409 0.0
0.1710378736312698 0.18026307272882414 0.0
0.6428208916697261 0.566101903227686 0.0
0.56373963273926 0.36726925308132213 0.0
0.44167568924176237 0.6352671870314287 0.0
0.3623923720427419 0.4285434415316346 0.0
0.8450899178918352 0.6437001777690237 0.0
0.6440765311333289 0.15541520393677902 0.0
0.3501450071593011 0.8419317037304238 0.0
0.15501797425747313 0.3554159244736779 0.0
0.6485834054921371 0.8419223294111258 0.0
0.8420474364683401 0.3580380324321247 0.0
0.1581922770595868 0.6438111255786584 0.0
0.3585269838728147 0.15754783644811338 0.0
0.6740616215573304 0.4493733596108223 0.0
0.583676609046419 0.6765305831733094 0.0
0.4463620497530059 0.3205911577945504 0.0
0.32827433122656835 0.5569130713718099 0.0
0.8827129895872668 0.5315060947138203 0.0
0.5311524778374922 0.11311716968481736 0.0
0.4667886796029428 0.8864634850394424 0.0
0.11285385773813852 0.46912216436430093 0.0
0.8979307153220637 0.7417427357676422 0.0
0.7416511327058233 0.10268291503608054 0.0
0.2585057336028461 0.8970617231840433 0.0
0.10364024430529309 0.25852905920237024 0.0
0.7447102682134098 0.8833837743108015 0.0
0.11859252014154698 0.7441732883948399 0.0
0.8821511756414564 0.2564620320100142 0.0
0.25628150998509136 0.11896583563209442 0.0
0.7414084078861414 0.6046994754364373 0.0
0.6089677062876341 0.2508850590349356 0.0
0.3944934618208376 0.7490620358679349 0.0
0.2543755284795913 0.39573969788693847 0.0
0.5235097844753086 0.5928497789038224 0.0
0.8986199184684607 0.8860246219065806 0.0
0.8841883215691736 0.10036160295926631 0.0
0.11574274652437501 0.8997843305126871 0.0
0.10093024375716357 0.11557687984765394 0.0
0.7617691534876746 0.39238503402363517 0.0
0.23810667212345424 0.6107736206612283 0.0
0.39082719635878 0.23650196609746488 0.0
0.897432997837364 0.4372878328621789 0.0
0.4361267436701738 0.10201638781681183 0.0
0.5650757493154134 0.8953031718476624 0.0
0.1030312424561148 0.5636905734796854 0.0
0.7881630766037984 0.7425488317530344 0.0
0.7424580990090531 0.21148800452237088 0.0
0.25729581231944293 0.7892961876121846 0.0
0.2112755068668348 0.2572578819644428 0.0
0.7202451872268028 0.8007138849020246 0.0
0.7945851063963926 0.2831680678496932 0.0
0.20558008823336157 0.7179902890122791 0.0
0.28796577146160385 0.20211784764648988 0.0
0.5942275092257413 0.49542784640222814 0.0
0.4908900753055227 0.4124609286021489 0.0
0.42508818001024334 0.5469390326533567 0.0
0.6322045660110249 0.7590096865008136 0.0
0.6523173119646055 0.35431703387172225 0.0
0.49535441529355134 0.6932137664973563 0.0
0.35393730104625315 0.6432410785209651 0.0
0.3498933709898849 0.3481891162304417 0.0
0.916051097707849 0.8158236793167166 0.0
0.8149154401694214 0.0836696404136292 0.0
0.1847969590946191 0.9166966239417901 0.0
0.08340943047977792 0.18521264969935491 0.0
0.827777690041947 0.9103684673233949 0.0
0.09102907145685397 0.8288155554491711 0.0
0.9090777406690197 0.17207344053449283 0.0
0.17207368991653527 0.09082933854885364 0.0
0.6980681478448677 0.518675978069777 0.0
0.6488832940434494 0.6487268958781305 0.0
0.512485151308851 0.3034374708196794 0.0
0.2996702159213457 0.4844294183961079 0.0
0.9182335200076883 0.6079344154302196 0.0
0.612951257221992 0.08560846852131825 0.0
0.3955092753417632 0.9206010674273852 0.0
0.08332806496589232 0.38731648285802717 0.0
0.664281848154928 0.9191806880393963 0.0
0.08103322103299015 0.6621862347171392 0.0
0.9191739671078346 0.3385293551803801 0.0
0.33840266427537563 0.08095044873207197 0.0
0.8218595113857249 0.4368480470454706 0.0
0.5667067665557225 0.8166604286134647 0.0
0.43526643245067825 0.17733979052794915 0.0
0.1781533574567566 0.5656938862264896 0.0
0.43354207011422846 0.45891437017432585 0.0
0.8191607039439623 0.5703814845475004 0.0
0.5678674202648626 0.18145030332915102 0.0
0.4300470441464988 0.8189821764066829 0.0
0.1807719013339289 0.43182439477766654 0.0
0.771003361276545 0.6680756320124295 0.0
0.6679819708706264 0.22583167033520576 0.0
0.33151767516990654 0.7759670747483484 0.0
0.22572265461593144 0.3321008271186248 0.0
0.9288648134102994 0.6843307272054779 0.0
0.684807191329354 0.07230394254955072 0.0
0.3126151274288774 0.9267136965626711 0.0
0.07378117333646782 0.3117640019998669 0.0
0.5610966317665879 0.74053957158357 0.0
0.6023897812132698 0.41999376562561497 0.0
0.3748556716652779 0.49952582493928505 0.0
0.7344475265329132 0.45878355683522504 0.0
0.4555201339654662 0.262513580817903 0.0
0.2667037054905118 0.5434788071300215 0.0
0.5870597227975064 0.614808474577156 0.0
0.4179195293044204 0.38737545961358616 0.0
0.5721780816427444 0.5424027880846737 0.0
0.5483013928890087 0.4490737259983061 0.0
0.933767902632491 0.49654409934015836 0.0
0.4977753653889125 0.06682444023399227 0.0
0.5019300737658826 0.9319528166056026 0.0
0.06687585883149594 0.5023452160653072 0.0
0.845501977146245 0.4987327489078029 0.0
0.49661129403371934 0.1538401163229812 0.0
0.4988035219870641 0.8426515189552428 0.0
0.1542219686811741 0.5031527021353199 0.0
0.8443895829388706 0.6982465416576844 0.0
0.6982013443955274 0.155278001107437 0.0
0.3005859527817615 0.8439763816146694 0.0
0.15576466718530435 0.30169263369280064 0.0
0.7711104729803564 0.8380407363016696 0.0
0.8352926167002338 0.22853480920021446 0.0
0.16497046860053086 0.7719385266570261 0.0
0.22811270991774638 0.16459497591301248 0.0
0.7622382642773927 0.32742028353290936 0.0
0.23752616053773198 0.6752102911306344 0.0
0.32585948002749754 0.23832924003947006 0.0
0.6390053289381162 0.300928120436292 0.0
[...]
POINT_DATA 2209
SCALARS Psi double
LOOKUP_TABLE default
0.0
0.0
0.0
0.0
0.0
0.0
0.0
0.0
0.0
0.0
0.0
0.0
0.0
0.0
0.0
0.0
0.0
0.0
0.0
0.0
0.0
0.0
0.0
0.0
0.0
0.0
0.0
0.0
0.0
0.0
0.0
0.0
0.0
0.0
0.0
0.0
0.0
0.0
0.0
0.0
0.0
0.0
0.0
0.0
0.0
0.0
0.0
0.0
0.0
0.0
0.0
0.0
0.0
0.0
0.0
0.0
0.0
0.0
0.0
0.0
0.0
0.0
0.0
0.0
0.0
0.0
0.0
0.0
0.0
0.0
0.0
0.0
0.0
0.0
0.0
0.0
0.0
0.0
0.0
0.0
0.0
0.0
0.0
0.0
0.0
0.0
0.0
0.0
0.0
0.0
0.0
0.0
0.0
0.0
0.0
0.0
0.0
0.0
0.0
0.0
0.0
0.0
0.0
0.0
0.0
0.0
0.0
0.0
0.0
0.0
0.0
0.0
0.0
0.0
0.0
0.0
0.0
0.0
0.0
0.0
0.0
0.0
0.0
0.0
0.0
0.0
0.0
0.0
0.0
0.0
0.0
0.0
0.0
0.0
0.0
0.0
0.0
0.0
0.0
0.0
0.0
0.0
0.0
0.0
0.0
0.0
0.0
0.0
0.0
0.0
0.0
0.0
0.0
0.0
0.0
0.0
0.0
0.0
0.0
0.0
-0.040544021382803
-0.07551643430046212
-0.010048677403810621
-0.04748446474180226
-0.009538710678964564
-0.024620396834736
-0.00856202167801533
-0.08045252596308722
-0.017005140041126958
-0.06478091883051203
-0.001577643707127456
-0.036912977755495076
-0.0017188113439436312
-0.05179775422067841
-0.02138556023126135
-0.0581996937161494
-0.023316199314001324
-0.031819151601015325
-0.003757283199175986
-0.06490903263720628
-0.005186484078073594
-0.08485936177002615
-0.005559603518160536
-0.017331350555114908
-0.003805496013916022
-0.027760916329352972
-0.0756901138153375
-0.0160521678691803
-0.03449219382567794
-0.00998583875946664
-0.0025227325437620087
-0.06860945849223915
-0.005186570324883047
-0.027828341310653794
-0.0011366454152174133
-0.05037179295396334
-0.0014236177460348186
-0.07158717058766188
-0.01587251690403779
-0.0015453197009689269
-0.0014897708229011121
-0.049097231272722024
-0.00979592285988962
-0.06706460722280712
-0.013282734042033185
-0.05732752768251586
-0.040986792284063385
-0.00020852593092514365
-0.027988594458604802
-0.0002653877531155912
-0.013699859808652364
-0.0278986375976825
-0.00848767331020153
-0.004103299405932941
-0.002017664340644833
-0.06978208464284225
-0.006405010722385699
-0.067949742815757
-0.0043721677770126085
-0.04877830693923059
-0.004665719683021386
-0.08497961686872275
-0.005336104483724189
-0.03181816619319775
-0.004640348518139328
-0.03956641488158215
-0.026871958105513037
-0.042841088079844825
-0.08739205097241066
-0.01731041356245036
-0.07249249291362075
-0.04862488899508656
-0.015390052839036899
-0.027896851828227313
-0.0004100841561221648
-0.04000982328931039
-0.0004972431109805874
-0.05475569225486565
-0.015217649984269948
-0.0003944469862492901
-0.0004572328490989649
-0.037272148379565134
-0.06976359284928366
-0.015119194757446225
-0.023924717245274445
-0.008525481570082117
-0.001331547004047607
-0.05414520246708858
-0.002020264218449978
-0.060082026433409694
-0.006186274050161898
-0.0013141688119523878
-0.0010418575573931928
-0.011401553430094987
-0.08548902765268415
-0.0054771764738426295
-0.0158746670987185
-0.030914662744743342
-0.026445091645128174
-0.005770845977845446
-0.0744992314958067
-0.009589851854387644
-0.05738108195353463
-0.006899056206424942
-0.06016916428220849
-0.008183568765605593
-0.011153673619417107
-0.0007868428885028158
-0.04775213845031596
-0.001083342567404139
-0.08356723419138305
-0.027222265676324825
-0.03222100547822528
-0.023546097781131838
-0.011293025992565433
-0.025725793150686252
-0.06364923866155581
-0.021804168261888125
-0.048798178149642116
-0.032464014598271
-0.002632323977738292
-0.0009690630189826752
-0.051752579906614145
-0.002366667794071131
-0.01323301765712072
-0.004431875369967803
-0.07874827387386725
-0.010005123488382037
-0.04169638108468209
-0.0030953395021369786
-0.05860765062415625
-0.003868350026029799
-0.07713146170278005
-0.0023437857704818807
-0.028100115087856
-0.002306415969219143
-0.009111400063288646
-0.03377184881469818
-0.007219672739714463
-0.012905103909182895
-0.0576363950129673
-0.01390600365031538
-0.055835359008630986
-0.0014786315881913496
-0.0040493307163142304
-0.0009646178792810623
-0.04620311071511782
-0.06848223867564124
-0.01765708091358248
-1.799774088312495e-05
-0.025077587241701345
-7.104872558371425e-06
-0.04968516189176821
-0.0032508425921353194
-0.0007548520835145246
-0.04732951504000962
-0.0014647516971018058
-0.014324042264237289
-0.0003806743138921893
-0.03959919915882393
-0.0004697645270203669
-0.04746971885530688
-0.006261998954185604
-0.00036790799214235606
-0.00040334178279555503
-0.053809061327982265
-0.0020116067791935564
-0.0476675499778802
-0.002307141055300274
-0.0825255484089544
-0.003736357511358763
-0.019535726544542994
-0.003108441747171862
-0.06476291100000593
-0.040765358877096695
-0.020909833465395055
-0.035838410585400625
-0.01484449330928698
-0.08115048157192123
-0.019213298757095144
-0.054681875208087795
-0.010341493863852792
-0.016766827632093757
-0.01962439311007645
-9.036799747365849e-05
-0.030674496730957672
-0.00012318360189140414
-0.04135864550016077
-0.010846923899970835
-0.0001152684872585094
-0.00015467738276196704
-0.06861385634335483
-0.019459456686244114
-0.013288611615532556
-0.036799946683243843
-0.07396019921016278
-0.018821959914548003
-0.003350520775012759
-0.069403811476045
-0.005492335136834121
-0.0772484986821169
-0.006387095611679604
-0.04432178931178787
-0.006251046861779813
-0.08600775022245705
-0.04166964792580363
-0.006872544367791326
-0.06794308814783294
-0.00942949592529954
-0.049297617375153556
-0.0049870097969358824
-0.0005243940919076029
-0.0005227146501312359
-0.04861227362892663
-0.0005880352500219739
-0.03499859185812848
-0.0006915806424088137
-0.010943775927262766
-0.006291110033406011
-0.021269026261063407
-0.06285929902705585
-0.07170567376109921
-0.0028608972718580797
-0.040410786144690396
-0.0030051092961932433
-0.013655276186558799
-0.04019742784259344
-0.010797426402276595
-0.004003537242610417
-0.07631495649445044
-0.0024798243075892182
-0.010175148162055062
-0.08808154981677989
-0.05817002325482204
-0.08762150735379266
-0.03806771921475504
-0.0522272951551136
-0.006753059400557995
-0.026272006528750037
-0.005079430309421666
-0.02561133874101423
-0.01646443923231351
-0.01814254227804426
-0.001062691201434495
-0.0005792779553760433
-0.044312760487404665
-0.001958913362183232
-0.06841877484444252
-0.024578411689683537
-0.0011967630753004774
-0.0012778379063301513
-0.006677924641210099
-0.002488287168853276
-0.07152786126013048
-0.006239274078279137
-0.016856796676154293
-0.0084836348204573
-0.02273482435384093
-0.032116409562232
-0.042312339099546466
-0.02566316236814432
-0.002186995179496053
-0.05978885790759999
-0.0029268479719792235
-0.005295556266815559
-0.00024102310445132675
-0.030098719422079454
-0.0002695859322859337
-0.002630979016778364
-0.00031440095470605336
-0.035106087894025396
-0.0005716653568996005
-0.021175545144856787
-0.07728657991532216
-0.02406278198323437
-0.03275940171800171
-0.03882062401494132
-0.08334252637809637
-0.04572464352606557
-0.0011005576586565812
-0.0440310141015252
-0.0012682575282980536
-0.06985488802785583
-0.007392312239799215
-0.05201001977108802
-0.007800576915653542
-0.053206433779872456
-0.0004353864171825706
-0.02525635640456976
-0.000515374994767289
-0.04669368511838985
-0.01701632669500521
-0.07865123726453883
-0.04923270443247387
-0.025842886053390062
-0.02976003623339041
-0.0842674390842004
-0.02179611276362379
-0.026184318120675284
-0.04687941441898852
-0.02905980006928989
-0.03002651012716751
-0.011563150952600496
-0.01415435662634937
-0.022144861203219932
-0.06210994372286503
-0.07129697288782527
-0.009239208787102698
-0.00011927232606709622
-0.030257929371262392
-0.00015095836927076463
-0.03915688294328892
-0.005280423545312483
-0.0001495391687710188
-0.0001872759054577442
-0.02849375509602709
-0.0379760816611411
-0.04071569895095667
-0.008596214440734856
-0.01289504767280833
-0.01722074524760856
-0.004518391719051542
-0.0782993741402247
-0.008742450504264825
-0.07689045789621984
-0.012777636646375996
-0.0030309192594250023
-0.002287570909360574
-0.03584529216032915
-0.0017437763759596782
-0.00037400454467972953
-0.00031050059518603074
-0.002240648656819773
-0.0004716765209473909
-0.03406012005309852
-0.0007975399702028247
-0.008830396476789187
-0.0038501681863460126
-0.08030932059235912
-0.010590619629314745
-0.01972046757979136
-0.007274066933971132
-0.08426650326042774
-0.004099063826802868
-0.014510912435360528
-0.009620508410623986
-0.062409416382779234
-0.011680716893029672
-0.0641815737446569
-0.015364033355121438
-0.0008686266772890085
-0.0009116846099790055
-0.06642764910336399
-0.029570064711683542
-0.0007223149854023362
-0.045101513452454806
-0.0008757314735852471
-0.020695229910019156
-0.002539694285814258
-0.06384550428030354
-0.003682566012213074
-0.014346284795411694
-1.678809529541667e-05
-0.023348629569926678
-2.9675688682104406e-05
-0.0069613057154097446
-0.026638190421007003
-2.340794187781371e-05
-1.1891530840360294e-05
-0.0720249045953506
-0.04720606791052074
-0.00482734475262697
-0.061488820920148415
-0.006040815885954476
-0.06887385468486037
-0.010638205065301776
-0.0016527595337580414
-0.0014340442887762653
-0.07335355463396366
-0.013459970425353717
-0.048297965824335126
-0.012437954112347337
-0.00794110159519807
-0.013997316129363979
-0.02864741117497192
-0.018393954425581022
-0.016318254496877117
-0.006413858282117046
-0.015268155191256544
-0.007800126228650675
-0.001640795050709556
-0.06034113963644675
-0.002992808559393041
-0.07443628270023547
-0.033898577967778745
-0.04633957015024956
-0.05546337925803789
-0.05710664726214418
-0.012710062399986063
-0.015474623120177848
-0.02874161179702838
-0.004586086144236917
-0.07039519957819079
-0.006825625079594855
-0.009933131678237268
-0.006705680405541291
-0.027086921227604973
-0.08720174197879488
-0.03277356725914725
-0.061366082110157504
-0.00529976744985018
-0.0550846227298481
-0.00600228107369834
-0.0010675238252075994
-0.00034672023708464756
-0.033613290908721026
-0.0007743321546902463
-0.056835918007966856
-0.055516771114986915
-0.06463757645573567
-0.02761379593728558
-0.02358102152761727
-0.01322985574240453
-0.0316763776894544
-0.06990750874510707
-0.07330663253168523
-0.08082188898513233
-0.0030379530433283456
-0.02534453967893045
-0.0027723869429410997
-0.08001386960252449
-0.003917082403460276
-0.03725086005264553
-0.0038302488025809857
-0.045386095368318564
-0.002230658473672123
-0.052861160388982094
-0.0026524603096262176
-0.020335887097627073
-0.0011148696690321722
-0.05187273957028771
-0.0015014083340569363
-0.022352473180641097
-0.009572796819131429
-0.021259277488091664
-0.07821998162994782
-0.010111330343484626
-0.055589032783275885
-0.010892579877108715
-0.033141115384800246
-0.017679347952139338
-0.0029710992749071687
-0.00021415404546181827
-0.026889575725210287
-0.0002622968376197834
-0.025274347271158928
-0.02527915991280045
-0.05351839558486405
-0.012300183423725368
-0.0012694560899820216
-0.0537111225052211
-0.0017561656266982366
-0.00838725016391898
-0.04107296445360884
-0.007546634936785359
-0.033365434624394674
-0.00025949525448119615
-0.03445050866365209
-0.0003218624790630157
-0.03358640448511198
-0.0018259067216953087
-0.00024623570418238377
-0.00023795630143383232
-0.0006655364546143549
-0.0003074699204326531
-0.031366824013412474
-0.0008195192035877914
-0.004529675260498575
-0.001210517476884642
-0.055457790594791063
-0.002550518466742261
-0.010989001818165381
1.888516255388944e-06
-0.013013998172072008
2.9787109918058927e-06
-0.06642061905260402
-0.01883615846590866
-0.010753935252075481
-0.02948110835296571
-0.059547561788700416
-0.0007984025495921373
-0.029302492140945297
-0.0008990188561430225
-0.031220223234772443
-0.002330842750458106
-0.00013998396969124748
-0.00016482687206328925
-0.006296872420219011
-0.012782268370584207
-0.020226227874768955
-0.08238107499171168
-0.035365189746321156
-0.061351151312293545
-0.005695942790509756
-0.001657118068700824
-0.0011800848063787785
-0.08236904832684333
-0.088543298539234
-0.07434211495243324
-0.022875813934959115
-0.0017824175291399488
-0.0017640441034697623
-0.057947488702413986
-0.0007614041561002142
-0.008367570223286607
-0.0007578247377600918
-0.07655563575906459
-0.06824196093961163
-0.016764812702171863
-0.0005760921239767168
-0.04393843695710846
-0.000719689458730063
-0.037156715130501165
-0.002412237582451181
-0.0011182759196201291
-0.056803403418964664
-0.003323554721035377
-0.03287123092847459
-0.0011453663634520802
-0.000458411902060983
-0.0003010096969756998
-0.06355229430091282
-0.04683750215597426
-0.06327687149696697
-0.030297537352728433
-0.07052173860110404
-0.005612015171271511
-0.07735970129045362
-0.002874140450345745
-0.009504772078830223
-0.05499125578734925
-0.030456243764276553
-0.013611890772614517
-0.020633139437740738
-0.08684252715844441
-0.011605268918562
-0.015729305257064275
-0.009130768396612554
-5.7875738106227435e-05
-4.433975890300501e-05
-6.651929955222248e-05
-0.02888903934048676
-0.003917057262716056
-0.026124537144139343
-7.751458227218737e-05
-0.016503147272393374
-0.04208316502230361
-0.012928344025802122
-0.04366752151035666
-0.04385044747581139
-0.01231538124191614
-0.032722345678352215
-0.00875165298875013
-0.06223139475735176
-0.038685233269577485
-0.07094865240018149
-0.0019806138172509904
-0.034402761531989685
-0.00209321872664114
-0.08131857682331103
-0.0632827712254775
-0.0028314616252640367
-0.06252241262010359
-0.0019705075492433516
-0.046594465241538735
-0.042078538564839084
-0.003128748813050443
-0.0021650304262098314
-0.007298794038105135
-0.02099205794499106
-0.004886073615778512
-0.07752994518243211
-0.0024694716627508394
-0.06327726486886957
-0.001432886922873545
-0.005283206229036065
-0.027919601126743264
-4.050453927885587e-05
-0.02373923769162903
-6.420745214223632e-05
-0.003079774026368914
-9.976014778389094e-05
-0.022813783117362835
-0.00012638723069646177
-0.015315907809752805
-0.015431822124426774
-0.054540993820001514
-0.00474667502512581
-8.85712421628689e-05
-0.024197998635047197
-0.00011243196509827061
-0.029710880622918094
-0.002628306428264341
-9.127786643232996e-05
-0.00011923597537385028
-0.04651233354609286
-0.04092047201738328
-0.001402910554164959
-0.04890624055921305
-0.0016657486497075609
-0.010214951287297066
-0.00324063501178773
-0.07450284679284781
-0.0072438642168528985
-0.05882837341258927
-0.003657163852152306
-0.0524172576809286
-0.004130315005768868
-0.007296651424065322
-0.031055788398680197
-0.006143534149201334
-0.038893501149404666
-0.08450142087151773
-0.08414551695636818
-0.015771955076528645
-0.03364565211913438
-0.010555984615806726
-0.04086407578328454
-0.01702045493585489
-0.00010378481507384844
-0.00014144904512293654
-0.03441902455093457
-0.003160989280046014
-0.06175824284410816
-0.004145926530818183
-0.07507807844057114
-0.00426742687626661
-0.04280724689567724
-0.004347700945797854
-0.02199542252716542
-0.0632350680682272
-0.044740565301971257
-0.022611481688799354
-0.0222193259219619
-0.08330139297514007
-0.0003739140394876225
-0.00010904432332600735
-0.01934067006702824
-0.00021127967339903516
-0.041280332579869794
-0.08194025487430898
-0.01959782516630951
-0.035655717020438384
-0.02271890260760265
-0.005502456434447526
-8.792584066462705e-07
-0.008466031103116277
-0.01900485942188488
-0.016791975636445595
1.7045454921848188e-06
2.2399817727761974e-06
-1.0689541796133437e-06
-0.051417883172881436
-0.0044078662329648565
-0.0046924170717660045
-0.024224234636755826
-0.018905298814493546
-0.00392298726383928
-0.0035538417646443247
-0.0835120326799671
-0.03821016148741177
-0.01128011134284451
-0.040682250235267406
-0.009438009408705114
-0.028466538824441733
-0.08252409464200747
-0.03715191472362872
-0.002158718523451566
-0.05585377215065198
-0.002676981327896738
-0.0742707560235842
-0.008475873143560707
-0.06613096531613924
-0.011012334182362908
-0.07945875217988532
-0.04095929964808465
-0.00527123677815534
-0.0655580512642398
-0.0070423876259146645
-0.048569613275617735
-0.015117615419793463
-0.0002301783219808615
-0.00028326518418947443
-0.07772814425419675
-0.01978292831974479
-0.0023614438211705924
-0.0021698018647511226
-0.05648052377716759
-0.022039406077282962
-0.0488605227811416
-0.08629519369539733
-0.016834952803481035
-0.010310529185140716
-0.01851345355954005
-0.05758748414238669
-0.030462589449779167
-0.013203449815573726
-0.007645935875876266
-0.024526744478656246
-0.005988939982116662
-0.036041335616405164
-0.005412387316112166
-0.015216473268354994
-0.0034453763167708283
-0.006311220954524172
-0.06306276641797454
-0.08081924075811402
-0.03064942984378957
-0.0033494031235080427
-0.0031592149728373806
-0.018978624706943198
-0.0003059715432465096
-0.03846443289122979
-0.00037383420915215705
-0.049238092002998425
-0.008590947530847938
-0.00033051758670338597
-0.00037619625019668767
-0.03759852616841386
-0.017302755928468173
-0.05284371737981656
-0.012507181343878338
-0.004890107419477242
-0.012204676919064811
-0.027947936672922877
-0.0009144637828129907
-0.0002200663562897266
-0.00018801012821156304
-0.0744192449076094
-0.01745657897781654
-0.03245492995331445
-0.0001261822337289008
-0.0001625260405705153
-0.0698665996137087
-0.005412057797068955
-0.04942596362425514
-0.005749497446023259
-0.04402296228340405
-0.024387629685829304
-0.003519968334559006
-0.0681901211900938
-0.005257234799130864
-0.07875914315514164
-0.003821792888574512
-0.012394829810073664
-0.002631053903581004
-0.08605092862649377
-0.03355207673571544
-0.08747383354077858
-0.059554067614413474
-0.0006032942691069253
-0.02134574830849342
-0.000693058570116789
-0.014927419271870225
-0.005997740936195494
-0.0523547220237199
-0.009291268031889352
-2.256011320107137e-05
-0.023706664921552795
-3.4947072631101365e-05
-0.023352080000338078
-0.003774381657059487
-1.181604641893333e-05
-2.3504876932055956e-05
-0.07198915650965694
-0.012139050853826487
-0.006260490916413713
-0.01889901098357784
-0.05669513913078753
-0.0010276912178400657
-0.03674051576220567
-0.0011587753295582268
-0.019950352684827807
-0.0009352036381735542
-0.001673338267922367
-0.04916438277134421
-0.04227495957294383
-0.008031613169814144
-0.046250798494457776
-0.007769782903666755
-0.0007682953927866016
-0.00013454262543684118
-0.022709575647850602
-0.00022813985046549448
-0.07046810401154299
-0.07080873180048448
-0.0732377997400804
-0.015076328159527823
-0.0022843540893040994
-0.06397551419334782
-0.003579669353469793
-0.05846985089046507
-0.001017762287050891
-0.006535422240489725
-0.000882345597456839
-0.0314612407316518
-0.00016310931276018539
-0.03154094514649155
-0.0002077873743893083
-0.03578397426340403
-0.0384972259803425
-0.000525321633968453
-0.03920344004468534
-0.0006302954576701425
-0.08799696827803567
-0.022224712484907844
-0.004453211438555839
-0.007432662401396981
-0.04838228874258834
-0.00038282883921582274
-0.02906054391234877
-0.000460318188510999
-0.007795327518424957
-0.004772790085454863
-0.018258438579756633
-0.023058537639428948
-0.01266313234474055
-0.00068115908716665
-0.04741136093925371
-0.0010415482674786718
-0.017944132366893347
-0.0006552461264775781
-4.9357590294112766e-05
-6.339981022107843e-05
-0.006141565884236293
-0.01129871193553734
-0.039069524924525
-0.012609894929825085
-0.021478392428130596
-0.06396882054526727
-0.023386966170248037
-0.03448085369694044
-0.006763670007411534
-0.010210306854405427
-0.0010333962251274746
-9.776043656821661e-05
-0.020359762011367365
-0.0001348248443194718
-0.014494740598885137
-0.01534723350819747
-0.007104774974718097
-0.01865971200044761
-0.04752967127576765
-0.02165288470384435
-0.00023631300865642664
-0.00029542112081083896
-0.01853583969716237
-0.08672527299175546
-0.006385757898790523
-0.0020925519544864953
-0.06689511095017589
-0.004816634245150338
-0.05419588964997857
-0.04933803085629082
-0.02037780378860889
-0.07173821862392347
-0.011372957585190743
-0.051055752225248545
-0.011184353408353545
-0.006925358564843035
-0.06427389844146979
-0.008833689218690237
-0.04402893836935784
-0.02328171097906453
-0.053330517928852676
-0.00041068358623087175
-0.00017884772376485408
-0.023104115381586108
-0.00043715703092640876
-0.009491369986567187
-0.003584695537660326
-0.07852995044920293
-0.00890516359718168
-0.06013998941911933