# vtk DataFile Version 1.0
2D Simulation C++
ASCII
DATASET UNSTRUCTURED_GRID
FIELD FieldData 1
NODES 1 2 int
2209 4256

POINTS 2209 double
0.0 0.0 0.0
0.0 1.0 0.0
1.0 1.0 0.0
1.0 0.0 0.0
0.0 0.02500000037252903 0.0
0.0 0.05000000074505806 0.0
0.0 0.07500000298023224 0.0
0.0 0.10000000149011612 0.0
0.0 0.125 0.0
0.0 0.15000000596046448 0.0
0.0 0.17499999701976776 0.0
0.0 0.20000000298023224 0.0
0.0 0.22499999403953552 0.0
0.0 0.25 0.0
0.0 0.2750000059604645 0.0
0.0 0.30000001192092896 0.0
0.0 0.32499998807907104 0.0
0.0 0.3499999940395355 0.0
0.0 0.375 0.0
0.0 0.4000000059604645 0.0
0.0 0.42500001192092896 0.0
0.0 0.44999998807907104 0.0
0.0 0.4749999940395355 0.0
0.0 0.5 0.0
0.0 0.5249999761581421 0.0
0.0 0.550000011920929 0.0
0.0 0.574999988079071 0.0
0.0 0.6000000238418579 0.0
0.0 0.625 0.0
0.0 0.6499999761581421 0.0
0.0 0.675000011920929 0.0
0.0 0.699999988079071 0.0
0.0 0.7250000238418579 0.0
0.0 0.75 0.0
0.0 0.7749999761581421 0.0
0.0 0.800000011920929 0.0
0.0 0.824999988079071 0.0
0.0 0.8500000238418579 0.0
0.0 0.875 0.0
0.0 0.8999999761581421 0.0
0.0 0.925000011920929 0.0
0.0 0.949999988079071 0.0
0.0 0.9750000238418579 0.0
0.02500000037252903 1.0 0.0
0.05000000074505806 1.0 0.0
0.07500000298023224 1.0 0.0
0.10000000149011612 1.0 0.0
0.125 1.0 0.0
0.15000000596046448 1.0 0.0
0.17499999701976776 1.0 0.0
0.20000000298023224 1.0 0.0
0.22499999403953552 1.0 0.0
0.25 1.0 0.0
0.2750000059604645 1.0 0.0
0.30000001192092896 1.0 0.0
0.32499998807907104 1.0 0.0
0.3499999940395355 1.0 0.0
0.375 1.0 0.0
0.4000000059604645 1.0 0.0
0.42500001192092896 1.0 0.0
0.44999998807907104 1.0 0.0
0.4749999940395355 1.0 0.0
0.5 1.0 0.0
0.5249999761581421 1.0 0.0
0.550000011920929 1.0 0.0
0.574999988079071 1.0 0.0
0.6000000238418579 1.0 0.0
0.625 1.0 0.0
0.6499999761581421 1.0 0.0
0.675000011920929 1.0 0.0
0.699999988079071 1.0 0.0
0.7250000238418579 1.0 0.0
0.75 1.0 0.0
0.7749999761581421 1.0 0.0
0.800000011920929 1.0 0.0
0.824999988079071 1.0 0.0
0.8500000238418579 1.0 0.0
0.875 1.0 0.0
0.8999999761581421 1.0 0.0
0.925000011920929 1.0 0.0
0.949999988079071 1.0 0.0
0.9750000238418579 1.0 0.0
1.0 0.9750000238418579 0.0
1.0 0.949999988079071 0.0
1.0 0.925000011920929 0.0
1.0 0.8999999761581421 0.0
1.0 0.875 0.0
1.0 0.8500000238418579 0.0
1.0 0.824999988079071 0.0
1.0 0.800000011920929 0.0
1.0 0.7749999761581421 0.0
1.0 0.75 0.0
1.0 0.7250000238418579 0.0
1.0 0.699999988079071 0.0
1.0 0.675000011920929 0.0
1.0 0.6499999761581421 0.0
1.0 0.625 0.0
1.0 0.6000000238418579 0.0
1.0 0.574999988079071 0.0
1.0 0.550000011920929 0.0
1.0 0.5249999761581421 0.0
1.0 0.5 0.0
1.0 0.4749999940395355 0.0
1.0 0.44999998807907104 0.0
1.0 0.42500001192092896 0.0
1.0 0.4000000059604645 0.0
1.0 0.375 0.0
1.0 0.3499999940395355 0.0
1.0 0.32499998807907104 0.0
1.0 0.30000001192092896 0.0
1.0 0.2750000059604645 0.0
1.0 0.25 0.0
1.0 0.22499999403953552 0.0
1.0 0.20000000298023224 0.0
1.0 0.17499999701976776 0.0
1.0 0.15000000596046448 0.0
1.0 0.125 0.0
1.0 0.10000000149011612 0.0
1.0 0.07500000298023224 0.0
1.0 0.05000000074505806 0.0
1.0 0.02500000037252903 0.0
0.9750000238418579 0.0 0.0
0.949999988079071 0.0 0.0
0.925000011920929 0.0 0.0
0.8999999761581421 0.0 0.0
0.875 0.0 0.0
0.8500000238418579 0.0 0.0
0.824999988079071 0.0 0.0
0.800000011920929 0.0 0.0
0.7749999761581421 0.0 0.0
0.75 0.0 0.0
0.7250000238418579 0.0 0.0
0.699999988079071 0.0 0.0
0.675000011920929 0.0 0.0
0.6499999761581421 0.0 0.0
0.625 0.0 0.0
0.6000000238418579 0.0 0.0
0.574999988079071 0.0 0.0
0.550000011920929 0.0 0.0
0.5249999761581421 0.0 0.0
0.5 0.0 0.0
0.4749999940395355 0.0 0.0
0.44999998807907104 0.0 0.0
0.42500001192092896 0.0 0.0
0.4000000059604645 0.0 0.0
0.375 0.0 0.0
0.3499999940395355 0.0 0.0
0.32499998807907104 0.0 0.0
0.30000001192092896 0.0 0.0
0.2750000059604645 0.0 0.0
0.25 0.0 0.0
0.22499999403953552 0.0 0.0
0.20000000298023224 0.0 0.0
0.17499999701976776 0.0 0.0
0.15000000596046448 0.0 0.0
0.125 0.0 0.0
0.10000000149011612 0.0 0.0
0.07500000298023224 0.0 0.0
0.05000000074505806 0.0 0.0
0.02500000037252903 0.0 0.0
0.5040468565406676 0.5011742283659997 0.0
0.7095519231292912 0.7008338503093836 0.0
0.7006006465725965 0.29329362157071276 0.0
0.2953887546300882 0.7042946739577849 0.0
0.2930978119892296 0.29430848768857004 0.0
0.7744373427896744 0.5038679062625827 0.0
0.5006173089182931 0.22043308822570262 0.0
0.4908071464597766 0.7761434572740376 0.0
0.22146908078317593 0.49455843163766755 0.0
0.8268972119962839 0.8192078507665406 0.0
0.8177185491161432 0.16953739684426578 0.0
0.17880395401901245 0.8276210093861327 0.0
0.16924395411909451 0.17819607332410714 0.0
0.6409510410603729 0.5642365442121211 0.0
0.5622396808280039 0.3653137992038462 0.0
0.44010005328914387 0.6328926976847926 0.0
0.360914227955788 0.42612844792251303 0.0
0.8431589752105343 0.6422289926627377 0.0
0.6423983905811758 0.15422125688140154 0.0
0.34856827341923924 0.8401538869176124 0.0
0.15390021225411615 0.3536804420715644 0.0
0.6465624833790483 0.8397251995558148 0.0
0.8402951325522515 0.35660848544364493 0.0
0.15670618921323268 0.6413190383848508 0.0
0.35670111398237325 0.15536005141365658 0.0
0.6722303191460939 0.44727652146844726 0.0
0.5819985607369291 0.6746658889086539 0.0
0.4452941227952653 0.3184788216293111 0.0
0.3269157327880474 0.5543848364198971 0.0
0.8803239955861039 0.5299658294442953 0.0
0.5296150968375761 0.11176067084665213 0.0
0.46521054837329 0.8842182750469237 0.0
0.11157446547593713 0.4667885021559678 0.0
0.8959332816273221 0.7404775307822417 0.0
0.7399313266375593 0.10100679121705257 0.0
0.25692355337728684 0.8952503950262304 0.0
0.10163158118337173 0.2565525742591693 0.0
0.7434313412370507 0.8813596886302645 0.0
0.11716591855179549 0.7424547747827771 0.0
0.879746572211924 0.2548521158488608 0.0
0.2542395297387405 0.11678572703787474 0.0
0.739887537529645 0.6025364112056742 0.0
0.6071984433182649 0.24959846150695306 0.0
0.393641418766395 0.7463351312249458 0.0
0.2527599979574791 0.3929827160664124 0.0
0.5217593581934062 0.5900947350025401 0.0
0.8970952119616394 0.8839481593184375 0.0
0.8827004670818451 0.0990485062797225 0.0
0.11407663075033833 0.8976187103700402 0.0
0.09916118945421973 0.11386633530554224 0.0
0.7599687511010333 0.39113167698176354 0.0
0.23689767385633345 0.6082336095083823 0.0
0.38917027922886116 0.2343855601040633 0.0
0.8956992473844088 0.4357252938080123 0.0
0.4349197403007063 0.10065875139948184 0.0
0.5632015355137387 0.8928896156147356 0.0
0.1012709317755893 0.5617406836329822 0.0
0.7866320474144843 0.741030049040751 0.0
0.7404219327287563 0.21003970174616582 0.0
0.2558649534676753 0.7872939083754089 0.0
0.21003940304380245 0.25530887883587644 0.0
0.7188178098722721 0.7989548597394671 0.0
0.7923511886028042 0.28203245462099247 0.0
0.20426507792035895 0.7159967985687915 0.0
0.2858982951332319 0.1996470180472903 0.0
0.5926615221331216 0.4933318169151911 0.0
0.4895866101963782 0.41019059833058563 0.0
0.42376277726520156 0.5446088462010836 0.0
0.6305951170904982 0.7567046546458149 0.0
0.6503036921007362 0.35311526939376464 0.0
0.49450429520742883 0.6908145034050953 0.0
0.35243115254401375 0.6407972292362819 0.0
0.3479849916499604 0.34573824830786454 0.0
0.9144652841431249 0.8140926956633564 0.0
0.8134896874124238 0.08227269102514526 0.0
0.1834660016974281 0.9149112370107428 0.0
0.08223829840196586 0.18293973208607336 0.0
0.8261548220080656 0.9083032464827677 0.0
0.08941865948924484 0.8264735899784517 0.0
0.9072960010037256 0.17046635607758973 0.0
0.1703932492164845 0.0890613530757507 0.0
0.6967204421061098 0.5166573172616266 0.0
0.6472674624498495 0.64704440212764 0.0
0.5112768853704119 0.30179710903343776 0.0
0.2986327571082866 0.48224048994348045 0.0
0.9157411233618086 0.6063002873244802 0.0
0.6114551711776152 0.0838858119742458 0.0
0.39382951892412166 0.9186854520514074 0.0
0.08156411543718001 0.385315852520298 0.0
0.6621778910115359 0.9171090560829293 0.0
0.07965767716950735 0.6606666033665536 0.0
0.9173092942966098 0.3366380670968541 0.0
0.33650680905049024 0.07914821820771059 0.0
0.8198706524715592 0.43563982551492575 0.0
0.565474009241764 0.8146328946095129 0.0
0.4338740463835909 0.1753935855355969 0.0
0.17683033451455654 0.562842697858082 0.0
0.4323267719200943 0.45662522672207323 0.0
0.8167340551129394 0.5685915421982 0.0
0.5665169059647441 0.1799702249988973 0.0
0.429066704355366 0.8168441335615589 0.0
0.17980171177848697 0.4294115019436915 0.0
0.7695158098093354 0.6662028935228149 0.0
0.6664248560750758 0.22427835484327893 0.0
0.3298631538065416 0.7737375075214847 0.0
0.22457979856501856 0.32954573740430276 0.0
0.9271584890746696 0.6827866163480052 0.0
0.6829067262980609 0.07045351827993487 0.0
0.31102424343066987 0.924803489274218 0.0
0.07220309447543652 0.30998178163452667 0.0
0.5598205037081552 0.7386971948853082 0.0
0.6007303074097512 0.4178764236143671 0.0
0.37368631925254164 0.49696739645483934 0.0
0.732447737567048 0.4574513747775168 0.0
0.4541447837570282 0.26073346543523734 0.0
0.26529045498136217 0.5405913313784582 0.0
0.5854657941754213 0.6122344831413384 0.0
0.41669366948475506 0.3849636523766058 0.0
0.5703820863509325 0.5400959770330089 0.0
0.5468775235603238 0.44684508090944125 0.0
0.9320931279605985 0.49500310353827526 0.0
0.4960376174686433 0.06452667984263956 0.0
0.5001299001068555 0.9302186568703927 0.0
0.06467773558585653 0.5004179896053123 0.0
0.8432075247156031 0.49727296239572316 0.0
0.49552838773167446 0.1521189465203953 0.0
0.4973359083836064 0.8402709016741272 0.0
0.15286238841825545 0.500944479696622 0.0
0.8427964315213635 0.6960749817201345 0.0
0.6960233591542607 0.15436524941251495 0.0
0.29943595432753956 0.8422011527327796 0.0
0.15450050780461955 0.29980413391429084 0.0
0.7697121274594987 0.8359793378967695 0.0
0.8332928374025836 0.2273738903414859 0.0
0.16368734546510413 0.7700769443049343 0.0
0.22639109369501337 0.1627263869220673 0.0
0.7600174936576196 0.32600122574547924 0.0
0.23621663730574555 0.6724697443497132 0.0
0.32429471594428727 0.2356030286188329 0.0
0.6376124161329064 0.3000071901320699 0.0
[...]
POINT_DATA 2209
SCALARS Psi double
LOOKUP_TABLE default
0.0
0.0
0.0
0.0
0.0
0.0
0.0
0.0
0.0
0.0
0.0
0.0
0.0
0.0
0.0
0.0
0.0
0.0
0.0
0.0
0.0
0.0
0.0
0.0
0.0
0.0
0.0
0.0
0.0
0.0
0.0
0.0
0.0
0.0
0.0
0.0
0.0
0.0
0.0
0.0
0.0
0.0
0.0
0.0
0.0
0.0
0.0
0.0
0.0
0.0
0.0
0.0
0.0
0.0
0.0
0.0
0.0
0.0
0.0
0.0
0.0
0.0
0.0
0.0
0.0
0.0
0.0
0.0
0.0
0.0
0.0
0.0
0.0
0.0
0.0
0.0
0.0
0.0
0.0
0.0
0.0
0.0
0.0
0.0
0.0
0.0
0.0
0.0
0.0
0.0
0.0
0.0
0.0
0.0
0.0
0.0
0.0
0.0
0.0
0.0
0.0
0.0
0.0
0.0
0.0
0.0
0.0
0.0
0.0
0.0
0.0
0.0
0.0
0.0
0.0
0.0
0.0
0.0
0.0
0.0
0.0
0.0
0.0
0.0
0.0
0.0
0.0
0.0
0.0
0.0
0.0
0.0
0.0
0.0
0.0
0.0
0.0
0.0
0.0
0.0
0.0
0.0
0.0
0.0
0.0
0.0
0.0
0.0
0.0
0.0
0.0
0.0
0.0
0.0
0.0
0.0
0.0
0.0
0.0
0.0
-0.05876160333942049
-0.09021985068737844
-0.013657396624800788
-0.05638082366874035
-0.013311222352861916
-0.03483002365894752
-0.011814091986004815
-0.09232696499326819
-0.023376283919251097
-0.0691774662102208
-0.001528474300413127
-0.03770681120141082
-0.0021433890534180923
-0.0714223613548762
-0.03153036136488419
-0.0763292523966407
-0.0338835905868057
-0.04025592103284079
-0.004603888359817352
-0.06929915113943222
-0.007143777305278501
-0.09180513117879605
-0.0073241744633510105
-0.020860184645751543
-0.004963061441473233
-0.04051214811570868
-0.09491313815427835
-0.023297824794147087
-0.04714607945424317
-0.013954684100481932
-0.003190363889385704
-0.07277371464562217
-0.007005769024758451
-0.03227346828695374
-0.0011296464635185918
-0.0513555241282616
-0.0018214219215561612
-0.0748560798801814
-0.016977248832600288
-0.001621116231542519
-0.0018259376314084899
-0.06450352184821544
-0.013409807240087144
-0.07836817946539608
-0.018777058426365574
-0.07811002960663986
-0.04239940021224364
-0.00010157129139307824
-0.02755162179535226
-0.00028457966780519496
-0.019509337050516527
-0.035617958565492276
-0.011787378169409996
-0.005642220434390694
-0.002556650854584904
-0.07409203565184001
-0.00813243324579738
-0.07737485850796984
-0.0051939188133908396
-0.05278801980972289
-0.006297190833583938
-0.093183004553516
-0.006688421816904042
-0.03619274465503789
-0.006140520286808324
-0.057491156788068785
-0.03978560102011202
-0.06014958916287377
-0.10070703950718835
-0.02510617273314384
-0.09018213881535454
-0.06235923505677253
-0.022117386938134524
-0.030546024125231865
-0.0003089425335242515
-0.04016842575937335
-0.000586151652419415
-0.05644765356157592
-0.015002169969148358
-0.00026603175240227586
-0.0005122605163417886
-0.0527608929316023
-0.08898794920708292
-0.021834569734035685
-0.03372622809875646
-0.011443065132025964
-0.0015435814223148396
-0.056376943363636724
-0.0027213027417162393
-0.06295541203174568
-0.007003202262537869
-0.0015581666596254432
-0.001266081206516047
-0.01610358519067763
-0.09493816335005274
-0.007336365883796073
-0.020608691973867024
-0.04528974936798716
-0.03594874615307272
-0.007597051047092156
-0.08219408899778567
-0.013269842241384758
-0.0704435339474023
-0.008931866392054124
-0.06743013874882682
-0.011406391668259162
-0.013694413221604975
-0.000813191932306418
-0.04908443165268551
-0.0014105280033988286
-0.0989176668050905
-0.04024368282820144
-0.04598610185247694
-0.03406777275469703
-0.01599601280928101
-0.03484178538305653
-0.0846014121500018
-0.03205532290333824
-0.06897347163285017
-0.047964414842124506
-0.003671820456174414
-0.0011588973656250375
-0.05422626637378267
-0.0030457456814552285
-0.018656031089917736
-0.005827530346098095
-0.08598808479240178
-0.013466142541541737
-0.04970904532845273
-0.003606523329993824
-0.061762402835472026
-0.005216623350008593
-0.08195386916205476
-0.002511445617566835
-0.02987284857749192
-0.002909360964245973
-0.01234239364681951
-0.04059542241591266
-0.009875591818754787
-0.018204663904664086
-0.06995668260679172
-0.019806222435333122
-0.05845728031390686
-0.0018994788530779958
-0.004854786379240715
-0.0011693583128680033
-0.062183408068713864
-0.08380406940695001
-0.017254064608598182
-1.153685330716405e-05
-0.026103065827064058
1.4631975766051878e-05
-0.06940742622267303
-0.004620232971988225
-0.0008821144560692749
-0.04938980767598124
-0.0019359319056222644
-0.016586528738107176
-0.00032430869530573105
-0.040289491752503355
-0.0005690584802265974
-0.049423719384023054
-0.006314447730672161
-0.00030049337749280295
-0.00045123228111325467
-0.059737006176685176
-0.0020939441957588804
-0.04910715340770492
-0.0029701183922378003
-0.08824777959179603
-0.0045725652289684195
-0.022335603938592418
-0.004008876700846575
-0.08153048376471758
-0.05846867989692367
-0.030834074237722827
-0.04955422570359499
-0.0213878348916397
-0.09752946194730679
-0.027568037032284543
-0.0731267854052761
-0.014438520303739223
-0.023514899131269824
-0.020912620756053497
-3.525005672432198e-05
-0.03078725290538059
-0.0001268160138964654
-0.04269731694090307
-0.010436247660195675
-4.0927986087555716e-05
-0.00015604694539497315
-0.08884860283226834
-0.028323475385767592
-0.01904938174695365
-0.048255895509186464
-0.08674644144334466
-0.02522157803047999
-0.004200580319212081
-0.07391349760726484
-0.007542085612905566
-0.08856397419038295
-0.008110650125377879
-0.050079685695306915
-0.008492057705370495
-0.09780604840912309
-0.053977268429413985
-0.009037682845156842
-0.07580946992845455
-0.013193283163728536
-0.05129783551388888
-0.00523605049242071
-0.0005248192041987461
-0.0006025526127811792
-0.051240031639784744
-0.00044373818136467913
-0.034898692979956424
-0.0008120538538688091
-0.015378018797755012
-0.00855932652077429
-0.02699165300442282
-0.08273828410271802
-0.07825114771170612
-0.003167491366510793
-0.04272573928431356
-0.003898707187142496
-0.019288375248197466
-0.05012365586004162
-0.015266080180803722
-0.005324048671211887
-0.08131273245546128
-0.0031730653859784203
-0.012407957796639012
-0.09835396734832881
-0.07339840633987799
-0.09659112946432676
-0.054998788608743805
-0.07109732562728431
-0.008862173790074371
-0.031221909675814397
-0.006776155232515204
-0.037959249558298186
-0.02384555795968387
-0.02616599934371683
-0.0014433349495903687
-0.0007061412317967304
-0.04661215828680482
-0.002423685395763398
-0.07145146296999202
-0.025129230643917706
-0.0011061838705671825
-0.0015369131612002112
-0.009346620492673942
-0.003156777286337929
-0.07626307700018607
-0.008228234933825206
-0.02424624383330592
-0.011732416808934748
-0.029969546307486702
-0.047305521812993405
-0.0611720317247433
-0.03150882020109682
-0.0024928540688493616
-0.06215785019838945
-0.003943135084208429
-0.00654430097355729
-0.00021601674997578533
-0.03135934695381036
-0.00032133863766204725
-0.0035879049689848093
-0.0003225923897267255
-0.036812237268293295
-0.000721460352167456
-0.03117004436509108
-0.09547926579656064
-0.03545088961120628
-0.04805717161213288
-0.05408840898581708
-0.09972076841626437
-0.04993516340761783
-0.001010109603574461
-0.04453160239389677
-0.0015885870419001127
-0.08261136835072048
-0.00961853615362166
-0.05913254191903826
-0.010769422065405064
-0.05504636735828284
-0.00029373451878487154
-0.025048865416977376
-0.0005845347610789472
-0.0645397730191844
-0.024734093249824615
-0.09436091842439989
-0.06948684355499797
-0.03704005110154714
-0.041839277466931515
-0.09622715442734946
-0.03212114123667205
-0.03868891689766786
-0.06624800911464905
-0.04138562112415496
-0.04343170441975762
-0.016370739790743938
-0.020384047244078746
-0.03056749664335521
-0.08244521585569606
-0.09128361540554904
-0.010526304204944699
-7.48533171066674e-05
-0.030986802339993846
-0.0001674586974352724
-0.040537009963524925
-0.005111257663274147
-8.585446033979365e-05
-0.00019681131648271763
-0.041427200195020025
-0.05097648854519878
-0.05435836726211588
-0.011677329150167443
-0.018065048014071012
-0.023919957481583078
-0.0059048714904286655
-0.086996939003989
-0.011958124317079617
-0.0813529166562748
-0.014859262354545752
-0.0037237484208446996
-0.0029002414756047856
-0.037834827796778325
-0.001941598664449092
-0.0004319571355929
-0.0003574432084989133
-0.00315125478685451
-0.0005263857396130664
-0.03567509431692828
-0.0010459369855672078
-0.012488886698002794
-0.005019190982519236
-0.08713785692073209
-0.013869630472446624
-0.02874441284367226
-0.010007815083844318
-0.09182352656645176
-0.005393744686099947
-0.018247289649199003
-0.01309323059088453
-0.07280392286791691
-0.016467236311084134
-0.06661053212328837
-0.015664196167548904
-0.000776101853422377
-0.0010789717522801036
-0.08434430223333002
-0.0329368092863396
-0.0006441872188754386
-0.0455102759836496
-0.001081371704339488
-0.0264453430449852
-0.003023973997429553
-0.0671389600771764
-0.005004526956974391
-0.01514505422048703
6.8888778640016165e-06
-0.023689695874791777
-2.4568363967546307e-05
-0.006604544768452731
-0.028035785967621248
-1.856199874531826e-05
1.1329775518199171e-05
-0.08189062385634352
-0.05766069134981566
-0.005982962912521389
-0.06667019462843345
-0.008305069201438578
-0.07198162460680531
-0.011803694108148436
-0.0018751566119869746
-0.001763288690107352
-0.09047393028823886
-0.018996349557320328
-0.05963644118283505
-0.01766811266987274
-0.010813083982175021
-0.019368860692960472
-0.03959635817183167
-0.02689954498291614
-0.023164449568830906
-0.008680996616326368
-0.020460481021449053
-0.010757878336144392
-0.0019739117889294314
-0.06337310463496527
-0.004021486082812615
-0.08056112587381604
-0.04894275972991362
-0.06282064699473221
-0.07617163816286812
-0.0724415672476605
-0.017928455381837235
-0.022075388904113792
-0.03765025032459039
-0.005802744274414261
-0.07638943949131424
-0.009468112466185888
-0.013622093005428817
-0.009144801584814692
-0.03351740731436058
-0.10043729417590619
-0.04822807327852151
-0.07234495699864982
-0.006577437022713239
-0.060343125507606815
-0.00823045142280926
-0.001526051004255438
-0.0003973109907666857
-0.03541208715771338
-0.0009963956431507817
-0.07791921517383091
-0.07586754920550971
-0.0784678367086742
-0.038236255333038996
-0.03430257835380276
-0.018964796930091832
-0.04283585801319369
-0.09035883094513183
-0.08882325175844992
-0.08625415521867552
-0.0034717378619057884
-0.027709171689753544
-0.00355162232707974
-0.08780235467241267
-0.004588815248151046
-0.04060177870226773
-0.005032263080330373
-0.05192940914302984
-0.002407061579013005
-0.05478855168468533
-0.0034869168753406845
-0.024376140724762487
-0.0011541360509877672
-0.05317545294963427
-0.001958621145097572
-0.03206879991914753
-0.013332519545483954
-0.028842055829082027
-0.09654073001541176
-0.013839668781844212
-0.0654409434437732
-0.015318746911238457
-0.0482049896226236
-0.025889902682381255
-0.0038757210746582565
-0.00020999848197709935
-0.028358989243104774
-0.0003214496924859785
-0.037075238755019856
-0.03734678748175471
-0.06974160524640906
-0.015782012049804842
-0.0014226370997055156
-0.05552652983478391
-0.0023465713655490363
-0.011158526345041879
-0.04813595274252182
-0.010350826029329994
-0.0350059471840135
-0.00015652510117259138
-0.03426820794300859
-0.00036240573006174657
-0.03539167325226004
-0.0019498544822657785
-0.00025945740993857093
-0.000271446702667322
-0.0009652318839911326
-0.0003511010438855527
-0.03335509709084687
-0.0010160776144878788
-0.0063728099959637925
-0.0014516185086831165
-0.05813259885449895
-0.003385251251363829
-0.010863909197186465
3.123877847505172e-06
-0.013946581770132476
4.9584301838304105e-06
-0.08139012935001311
-0.02722440258499599
-0.015167036145178068
-0.038809762955165736
-0.06228597735043705
-0.0006503968531965958
-0.02921441701266171
-0.0010655179089405482
-0.032925895798082264
-0.002272259488271971
-0.00010914585840433177
-0.00017691887009355924
-0.008475821219169026
-0.01742554840265142
-0.028311633792094823
-0.09698396754659191
-0.051987522335254235
-0.06438797899483029
-0.006733455477358061
-0.002073094471114968
-0.0014449164041169316
-0.09288796238157866
-0.09961011191021898
-0.07812698200689244
-0.024004518510423734
-0.0018201851440378474
-0.0021774833101138574
-0.06011121978573561
-0.0007410968247800793
-0.008742645176916235
-0.000889517217870716
-0.08690654695162699
-0.08752838532137924
-0.019633695138662255
-0.0005313638463069287
-0.044698920498624395
-0.0009004172350175975
-0.05446029468373216
-0.0033391342442113513
-0.0013841638002368012
-0.05965332552777655
-0.004231500228001758
-0.03497896048611433
-0.0013532411630164149
-0.0006111799173193274
-0.0003537056055016747
-0.08453028053355353
-0.06426583225385608
-0.08172964850867026
-0.044878842725302875
-0.08376795374110235
-0.007712328249246803
-0.08290251815991403
-0.0037047195550738085
-0.012011831234537538
-0.07174163879567654
-0.04499364528162075
-0.019460494080466288
-0.029249546583095587
-0.09914778534975294
-0.016270541623615294
-0.02230461302989763
-0.010132905313565945
-2.4706313615412967e-05
-9.490421187118491e-06
-6.487570090342348e-05
-0.030438717829365795
-0.003691993983735675
-0.027077080097251443
-8.007553805386888e-05
-0.023801655086190768
-0.0533233589141771
-0.018443976019629146
-0.06240469975280957
-0.06298975560284677
-0.017318048090969852
-0.04089097987964908
-0.012151825414653273
-0.07838333344297312
-0.054760267320531825
-0.07579420818048314
-0.002037693066860297
-0.035779618903499955
-0.002632295841025152
-0.0940250840438279
-0.07044377503777058
-0.003136092048681665
-0.06797442980154185
-0.00201817467306067
-0.04893055455199058
-0.04342099219979447
-0.004094098912963782
-0.0027646998287893373
-0.00982190794300462
-0.02557833868897787
-0.006494618166385337
-0.0905117763350702
-0.0032999696210706223
-0.06670101824119905
-0.0017689598733784642
-0.006476257317102803
-0.028945342275855428
4.868162246103001e-06
-0.02346359134528095
-5.6900104893896155e-05
-0.003853475987395261
-8.153122825524468e-05
-0.024029549039726858
-0.00014517639063692692
-0.021993281066505894
-0.0221335562827863
-0.06820241843099574
-0.00576388113417974
-6.062102433568552e-05
-0.025472953446263626
-0.0001261321871408452
-0.03131549559099796
-0.002517556840760421
-5.495885315485238e-05
-0.00012364978501941073
-0.06514038480710081
-0.04577694220056789
-0.0013905512944915328
-0.049930444793923674
-0.002129601081218111
-0.014392783536967033
-0.004150140330031265
-0.08000426038103713
-0.009686311695733111
-0.06756951620164327
-0.00424513610835356
-0.05579211372192995
-0.005550914649454918
-0.009604915347388802
-0.036647510991818094
-0.008274774294313423
-0.054457366676255184
-0.09114460529777049
-0.09067914139956464
-0.022644466370444
-0.04315318058672374
-0.01492906450935977
-0.04201754485815448
-0.01662513049464357
-2.7021429583989767e-05
-0.00014114400820688702
-0.042229358464956346
-0.0037408272710210515
-0.06521470182931162
-0.005640898558942574
-0.0839690198009709
-0.005064316077499055
-0.046658244907780484
-0.005788016027602819
-0.03250428959343514
-0.08371096327908165
-0.06295365364582037
-0.03343799766984902
-0.032043552843913234
-0.09372466767106662
-0.0005621057105015605
-0.00011532383716623108
-0.020901696641770984
-0.0002654119915973521
-0.05614878516133011
-0.08986013240915576
-0.02874414593568253
-0.052018438499030054
-0.03317928964376977
-0.005012787751181018
1.012222751127677e-06
-0.009102766535282233
-0.020158899499242978
-0.0171504493334435
6.598451263845528e-06
8.176050722158816e-06
1.8398409284489105e-06
-0.06895161702393064
-0.005420415375087869
-0.00597432982960597
-0.02765759110823074
-0.022159595015182998
-0.005117108854614398
-0.004625019575192955
-0.0995073195131052
-0.05541038763473868
-0.015579104683459891
-0.04948769193400088
-0.013146106537207472
-0.04186118356306257
-0.0968085007166582
-0.0435150698446489
-0.0023654978807373214
-0.05783563124886983
-0.0035544014225184083
-0.09354241602389983
-0.011416428658531787
-0.07570808420600676
-0.015488785639551545
-0.09726274717829705
-0.05168381224144197
-0.0066775311444145415
-0.07148504154493893
-0.00976322110426648
-0.05002458734152377
-0.014716795430931554
-0.00012092973912146102
-0.0003038445122020436
-0.0821059654570029
-0.02163642396549259
-0.002622394466348119
-0.002719657244819711
-0.0761654972499258
-0.0323207940384051
-0.06419999468184569
-0.096210749913641
-0.02442598555447988
-0.01440843476356364
-0.025740692696720375
-0.07682072273239864
-0.04286050598306149
-0.018728009719422088
-0.010545724528563585
-0.03144588504444079
-0.0076096460625099385
-0.041062120624993995
-0.007272782265524857
-0.020952818083325168
-0.004379065594643271
-0.008634169515340951
-0.07522016844551778
-0.08706550899993624
-0.03346280876051537
-0.0038257858611875145
-0.004067397208968972
-0.021072470697678848
-0.0002303098234661576
-0.03885222286441892
-0.0004420190048911644
-0.05101242928082955
-0.008471064877953318
-0.00023623342093938868
-0.00041690081377274797
-0.05376768490520036
-0.025284494313500595
-0.07324674843628583
-0.017679160744917145
-0.006484064669325242
-0.016205781027514982
-0.029509505521844635
-0.0010365893629152554
-0.0002720942103195801
-0.00021359421329334764
-0.0930418738120659
-0.019028547374093967
-0.032829961238762924
-6.539181941472722e-05
-0.00017513576516194345
-0.08058847976881724
-0.006714435061052781
-0.05455672555872254
-0.007804985595324318
-0.06325251604532482
-0.031807454101628566
-0.0043457859456485426
-0.0727009834462236
-0.007223983106697732
-0.08381546730651393
-0.0049358169570641675
-0.014816465647495142
-0.003357271240532164
-0.09929192582266361
-0.04717293147970137
-0.09609104428601843
-0.061688850393723065
-0.00046774820172637674
-0.02124944615831823
-0.0007992999490418778
-0.021594738361859666
-0.008303131094386523
-0.05457052012350476
-0.010069606501852733
-9.237667897900418e-08
-0.024445649704828796
-3.225257295138502e-05
-0.024808183205529875
-0.003437426279666968
7.5922555888029326e-06
-1.9576568113628983e-05
-0.09131718076679762
-0.01723778925552711
-0.008511919759283781
-0.024437803646903296
-0.060186249933354995
-0.0008994102599976293
-0.03701753419277412
-0.0014114830351731511
-0.02910437767750922
-0.001096206278304483
-0.00224149425501266
-0.06349976344458301
-0.05707572276863729
-0.010586203768198153
-0.05348232659750586
-0.010710044946729775
-0.0010926764519406799
-0.00013640186418174488
-0.02417237930716522
-0.00028582628397373324
-0.08659270583739975
-0.07553617384185067
-0.07928429574905398
-0.020086640013527574
-0.0027533802295438775
-0.06717993299722794
-0.004878104329665443
-0.06089015473028276
-0.0011185855373163844
-0.007164181907022654
-0.0010626286659226457
-0.032826585061799425
-7.557317427997901e-05
-0.03131336489663657
-0.00022478238096096078
-0.04805791003386796
-0.041128533829198184
-0.0004051879987203808
-0.03921393589500171
-0.0007465777854523613
-0.09903361614235781
-0.030025256249443733
-0.005704412045876035
-0.01022985062689959
-0.05036946008780996
-0.00024441008152330625
-0.028671896466985182
-0.0005183467511116865
-0.010656803987180307
-0.006323630233523252
-0.02263375140799773
-0.03192496081737668
-0.015417513001660076
-0.0006748264361352118
-0.04868948705553993
-0.0013325195377924034
-0.019345169825193832
-0.0006502817708072223
-4.076104278683118e-05
-6.675993579173383e-05
-0.008184569782072264
-0.015550390350595293
-0.056992890748644075
-0.017964110107718853
-0.030053032269510265
-0.08352923293976623
-0.034644625637644526
-0.045800377309264756
-0.008998120459511564
-0.014260174384069096
-0.0014065162084841252
-9.424221167079988e-05
-0.02183571049914724
-0.00017060109669729998
-0.020873616435016402
-0.02189427331802797
-0.009681161071256201
-0.02468382886164033
-0.04902588752060169
-0.021279039058092808
-0.00011857090726966082
-0.00031564353879863093
-0.027079268407475945
-0.09605008381778717
-0.008895767510306433
-0.0026352532540561244
-0.07085498523237019
-0.006409605886196875
-0.07506934779798931
-0.062121349738829684
-0.029584364569253695
-0.07963816622053604
-0.015725855308587205
-0.06128632735853088
-0.015780184377419685
-0.009037636842474306
-0.07187070214259625
-0.012299143993071887
-0.060433544067250745
-0.0332818936379406
-0.06841304865643148
-0.0005890297554160452
-0.0001957836376958479
-0.02524926048475921
-0.0005370905680854825
-0.013437964376836807
-0.004649128041706415
-0.08496595317502502
-0.011841354116473024
-0.07395734098154029
-0.05698503517984694
-0.028162893475109987