# vtk DataFile Version 1.0
2D Simulation C++
ASCII
DATASET UNSTRUCTURED_GRID
FIELD FieldData 1
NODES 1 2 int
2209 4256

POINTS 2209 double
0.0 0.0 0.0
0.0 1.0 0.0
1.0 1.0 0.0
1.0 0.0 0.0
0.0 0.02500000037252903 0.0
0.0 0.05000000074505806 0.0
0.0 0.07500000298023224 0.0
0.0 0.10000000149011612 0.0
0.0 0.125 0.0
0.0 0.15000000596046448 0.0
0.0 0.17499999701976776 0.0
0.0 0.20000000298023224 0.0
0.0 0.22499999403953552 0.0
0.0 0.25 0.0
0.0 0.2750000059604645 0.0
0.0 0.30000001192092896 0.0
0.0 0.32499998807907104 0.0
0.0 0.3499999940395355 0.0
0.0 0.375 0.0
0.0 0.4000000059604645 0.0
0.0 0.42500001192092896 0.0
0.0 0.44999998807907104 0.0
0.0 0.4749999940395355 0.0
0.0 0.5 0.0
0.0 0.5249999761581421 0.0
0.0 0.550000011920929 0.0
0.0 0.574999988079071 0.0
0.0 0.6000000238418579 0.0
0.0 0.625 0.0
0.0 0.6499999761581421 0.0
0.0 0.675000011920929 0.0
0.0 0.699999988079071 0.0
0.0 0.7250000238418579 0.0
0.0 0.75 0.0
0.0 0.7749999761581421 0.0
0.0 0.800000011920929 0.0
0.0 0.824999988079071 0.0
0.0 0.8500000238418579 0.0
0.0 0.875 0.0
0.0 0.8999999761581421 0.0
0.0 0.925000011920929 0.0
0.0 0.949999988079071 0.0
0.0 0.9750000238418579 0.0
0.02500000037252903 1.0 0.0
0.05000000074505806 1.0 0.0
0.07500000298023224 1.0 0.0
0.10000000149011612 1.0 0.0
0.125 1.0 0.0
0.15000000596046448 1.0 0.0
0.17499999701976776 1.0 0.0
0.20000000298023224 1.0 0.0
0.22499999403953552 1.0 0.0
0.25 1.0 0.0
0.2750000059604645 1.0 0.0
0.30000001192092896 1.0 0.0
0.32499998807907104 1.0 0.0
0.3499999940395355 1.0 0.0
0.375 1.0 0.0
0.4000000059604645 1.0 0.0
0.42500001192092896 1.0 0.0
0.44999998807907104 1.0 0.0
0.4749999940395355 1.0 0.0
0.5 1.0 0.0
0.5249999761581421 1.0 0.0
0.550000011920929 1.0 0.0
0.574999988079071 1.0 0.0
0.6000000238418579 1.0 0.0
0.625 1.0 0.0
0.6499999761581421 1.0 0.0
0.675000011920929 1.0 0.0
0.699999988079071 1.0 0.0
0.7250000238418579 1.0 0.0
0.75 1.0 0.0
0.7749999761581421 1.0 0.0
0.800000011920929 1.0 0.0
0.824999988079071 1.0 0.0
0.8500000238418579 1.0 0.0
0.875 1.0 0.0
0.8999999761581421 1.0 0.0
0.925000011920929 1.0 0.0
0.949999988079071 1.0 0.0
0.9750000238418579 1.0 0.0
1.0 0.9750000238418579 0.0
1.0 0.949999988079071 0.0
1.0 0.925000011920929 0.0
1.0 0.8999999761581421 0.0
1.0 0.875 0.0
1.0 0.8500000238418579 0.0
1.0 0.824999988079071 0.0
1.0 0.800000011920929 0.0
1.0 0.7749999761581421 0.0
1.0 0.75 0.0
1.0 0.7250000238418579 0.0
1.0 0.699999988079071 0.0
1.0 0.675000011920929 0.0
1.0 0.6499999761581421 0.0
1.0 0.625 0.0
1.0 0.6000000238418579 0.0
1.0 0.574999988079071 0.0
1.0 0.550000011920929 0.0
1.0 0.5249999761581421 0.0
1.0 0.5 0.0
1.0 0.4749999940395355 0.0
1.0 0.44999998807907104 0.0
1.0 0.42500001192092896 0.0
1.0 0.4000000059604645 0.0
1.0 0.375 0.0
1.0 0.3499999940395355 0.0
1.0 0.32499998807907104 0.0
1.0 0.30000001192092896 0.0
1.0 0.2750000059604645 0.0
1.0 0.25 0.0
1.0 0.22499999403953552 0.0
1.0 0.20000000298023224 0.0
1.0 0.17499999701976776 0.0
1.0 0.15000000596046448 0.0
1.0 0.125 0.0
1.0 0.10000000149011612 0.0
1.0 0.07500000298023224 0.0
1.0 0.05000000074505806 0.0
1.0 0.02500000037252903 0.0
0.9750000238418579 0.0 0.0
0.949999988079071 0.0 0.0
0.925000011920929 0.0 0.0
0.8999999761581421 0.0 0.0
0.875 0.0 0.0
0.8500000238418579 0.0 0.0
0.824999988079071 0.0 0.0
0.800000011920929 0.0 0.0
0.7749999761581421 0.0 0.0
0.75 0.0 0.0
0.7250000238418579 0.0 0.0
0.699999988079071 0.0 0.0
0.675000011920929 0.0 0.0
0.6499999761581421 0.0 0.0
0.625 0.0 0.0
0.6000000238418579 0.0 0.0
0.574999988079071 0.0 0.0
0.550000011920929 0.0 0.0
0.5249999761581421 0.0 0.0
0.5 0.0 0.0
0.4749999940395355 0.0 0.0
0.44999998807907104 0.0 0.0
0.42500001192092896 0.0 0.0
0.4000000059604645 0.0 0.0
0.375 0.0 0.0
0.3499999940395355 0.0 0.0
0.32499998807907104 0.0 0.0
0.30000001192092896 0.0 0.0
0.2750000059604645 0.0 0.0
0.25 0.0 0.0
0.22499999403953552 0.0 0.0
0.20000000298023224 0.0 0.0
0.17499999701976776 0.0 0.0
0.15000000596046448 0.0 0.0
0.125 0.0 0.0
0.10000000149011612 0.0 0.0
0.07500000298023224 0.0 0.0
0.05000000074505806 0.0 0.0
0.02500000037252903 0.0 0.0
0.5073040300819078 0.5042480149686058 0.0
0.7125942738749848 0.7036477138691423 0.0
0.7040797122046576 0.296377209990062 0.0
0.2981830027687082 0.7073215059350236 0.0
0.2963902598083843 0.2969913063437232 0.0
0.7773081616474423 0.5065256456323052 0.0
0.5035755345662988 0.22350434641234207 0.0
0.49350785970439837 0.7791117535104872 0.0
0.2243539878937179 0.4976477969248238 0.0
0.8298141738442603 0.82236771487151 0.0
0.8207669232061798 0.17231087161661293 0.0
0.18180765122947035 0.8306431989577358 0.0
0.1723307033511004 0.18117654663167793 0.0
0.6441535871269698 0.5669969275599048 0.0
0.5647712437540254 0.3683043923839168 0.0
0.4430964788189654 0.6357912592967769 0.0
0.3640131048517352 0.42908322136278015 0.0
0.8461216829270823 0.6454558441782302 0.0
0.6454916286262659 0.15689865608039738 0.0
0.35165078912163816 0.8433333706816856 0.0
0.15681882219327656 0.3565108517519808 0.0
0.6498626673735481 0.8425993807680756 0.0
0.8432052121366732 0.3596904045892367 0.0
0.15940678613233134 0.6441998590074026 0.0
0.3596380688924722 0.1583516150138449 0.0
0.6751040143777152 0.45027309084611755 0.0
0.5849585530050516 0.6775438092310537 0.0
0.4481366228479363 0.3213524058832338 0.0
0.32991233022265565 0.5572031669837524 0.0
0.8832377657809213 0.5328740094510458 0.0
0.5326866116448699 0.11455454880584044 0.0
0.46818832933069393 0.8872672060810122 0.0
0.11429126679758257 0.4703177540148422 0.0
0.8989214203575346 0.7434423192533118 0.0
0.7433013739719466 0.10381871554871643 0.0
0.2599421758902525 0.8983490675537219 0.0
0.10467680031033604 0.25932021882057527 0.0
0.746606969687067 0.8844462670433599 0.0
0.12005044526588483 0.7454108547928998 0.0
0.8825374135470423 0.25790472206140735 0.0
0.25743963456211033 0.11957404485029641 0.0
0.7429801014683615 0.6055119476355767 0.0
0.6103384057462803 0.2521656554644782 0.0
0.39673230450612684 0.7493965285430355 0.0
0.2558370343741682 0.39592150027359674 0.0
0.5248124180205879 0.5929176680597378 0.0
0.89998735883886 0.8871127143250308 0.0
0.8858439318691924 0.10224064206424191 0.0
0.11728363481640902 0.9008414948292335 0.0
0.1021391419905819 0.11707942721247071 0.0
0.7627841744040008 0.39382184593870057 0.0
0.24023009250110794 0.6112560399075566 0.0
0.3923271203263668 0.23733999499466263 0.0
0.8985785418178946 0.4388741652922351 0.0
0.438053716265945 0.10381072870727351 0.0
0.5665777892620851 0.8962034421664435 0.0
0.10424157764358534 0.5650682981741469 0.0
0.7897695893736276 0.7439378243511549 0.0
0.7436326781409739 0.21298729466053365 0.0
0.25892423742737114 0.7901836257430954 0.0
0.21292900752826574 0.25822328642329084 0.0
0.7217745290082288 0.8015402559434824 0.0
0.7953316785886948 0.2851464568202738 0.0
0.2074013954557896 0.718315642789102 0.0
0.28920145001731534 0.2024803735296183 0.0
0.5957670914395834 0.4961769833699211 0.0
0.49246765616535915 0.41344090427943864 0.0
0.4268190010915569 0.5474557095293536 0.0
0.6334035897151499 0.7593479341559309 0.0
0.6533316959188282 0.35608073082482 0.0
0.49749136698080676 0.6935897704348322 0.0
0.35573545447093596 0.6437247008687873 0.0
0.35109428486207084 0.3485089015254541 0.0
0.9174787717422181 0.8171076440752364 0.0
0.8168138072832946 0.08541005942798864 0.0
0.1862854316882049 0.917766954838712 0.0
0.08526754293946515 0.1861636623232814 0.0
0.8292557888563851 0.9114361434907226 0.0
0.09240302571632976 0.8297149372272836 0.0
0.9101715058107556 0.17348634945012828 0.0
0.17319451714895728 0.09202183990958514 0.0
0.6993490911916851 0.5194552001611186 0.0
0.650187446065512 0.6501775198495119 0.0
0.5139286857167843 0.30501377052499984 0.0
0.3016360829711031 0.48508616978652613 0.0
0.9188266190046062 0.6093261292718265 0.0
0.6147952527886668 0.08697724058803641 0.0
0.3969887435933489 0.9220563346355736 0.0
0.08470957932803042 0.38855350229248103 0.0
0.6655923305375251 0.9206972466431849 0.0
0.08256835104903956 0.6636256460578831 0.0
0.9201934831387837 0.34005334773524265 0.0
0.3397288207804208 0.08250156949120217 0.0
0.8225580751179624 0.4384087017034812 0.0
0.5682888841595054 0.8174960469129225 0.0
0.4371879860045815 0.1783208494412922 0.0
0.17990620422117332 0.5660623172499336 0.0
0.43538077039756806 0.4590430270419218 0.0
0.8196966703158242 0.5715546960389193 0.0
0.5699075357364866 0.1824722406756149 0.0
0.4316799078739634 0.8198292595764766 0.0
0.18245402544931175 0.4328980660815003 0.0
0.7723337025536442 0.669136876803423 0.0
0.6694918641445057 0.2270595437205494 0.0
0.3329608330208043 0.7767181862200857 0.0
0.2273684736905502 0.33241414164475064 0.0
0.9301952250678552 0.6861223984825496 0.0
0.6864459503699479 0.07331010406251244 0.0
0.31405189276325474 0.9281060500590171 0.0
0.07574972469295754 0.31313084261033464 0.0
0.562388233187754 0.7415234809991783 0.0
0.6036685250623686 0.42094512954781826 0.0
0.37675903356808105 0.49970275301299955 0.0
0.7352520962825919 0.46034137070125264 0.0
0.45698404363313616 0.2637610981369188 0.0
0.2683691448980534 0.543640420676962 0.0
0.5889173345894941 0.6151753900744968 0.0
0.41950778857512727 0.3879746029112558 0.0
0.5733117315174361 0.5431705315779907 0.0
0.5496426738399143 0.4497898074902349 0.0
0.934876333350257 0.49847334512975966 0.0
0.4991943896318281 0.06773194790934695 0.0
0.5034703824273747 0.9334038224206068 0.0
0.0679094425795454 0.5038025488860103 0.0
0.8462602483536883 0.5001661278720545 0.0
0.49864940485998155 0.15489265418561918 0.0
0.500195785384589 0.8436593754038529 0.0
0.1553579735102262 0.5041232584355999 0.0
0.8457090137303721 0.6992628952158156 0.0
0.6991709182448848 0.15732343486264483 0.0
0.30269059102202156 0.8451218214502216 0.0
0.15725003777602678 0.3025926627079922 0.0
0.7726475255407395 0.8388642336940293 0.0
0.8359748400561452 0.2305900280723262 0.0
0.16636879748084116 0.7729594151636414 0.0
0.22964462361908008 0.16541521457802924 0.0
0.7628061364111601 0.32906916527542374 0.0
0.23940294806145412 0.6751932487640246 0.0
0.32737535810972423 0.2385352008499567 0.0
0.6404899770269094 0.3028121236957657 0.0
[...]
POINT_DATA 2209
SCALARS Psi double
LOOKUP_TABLE default
0.0
0.0
0.0
0.0
0.0
0.0
0.0
0.0
0.0
0.0
0.0
0.0
0.0
0.0
0.0
0.0
0.0
0.0
0.0
0.0
0.0
0.0
0.0
0.0
0.0
0.0
0.0
0.0
0.0
0.0
0.0
0.0
0.0
0.0
0.0
0.0
0.0
0.0
0.0
0.0
0.0
0.0
0.0
0.0
0.0
0.0
0.0
0.0
0.0
0.0
0.0
0.0
0.0
0.0
0.0
0.0
0.0
0.0
0.0
0.0
0.0
0.0
0.0
0.0
0.0
0.0
0.0
0.0
0.0
0.0
0.0
0.0
0.0
0.0
0.0
0.0
0.0
0.0
0.0
0.0
0.0
0.0
0.0
0.0
0.0
0.0
0.0
0.0
0.0
0.0
0.0
0.0
0.0
0.0
0.0
0.0
0.0
0.0
0.0
0.0
0.0
0.0
0.0
0.0
0.0
0.0
0.0
0.0
0.0
0.0
0.0
0.0
0.0
0.0
0.0
0.0
0.0
0.0
0.0
0.0
0.0
0.0
0.0
0.0
0.0
0.0
0.0
0.0
0.0
0.0
0.0
0.0
0.0
0.0
0.0
0.0
0.0
0.0
0.0
0.0
0.0
0.0
0.0
0.0
0.0
0.0
0.0
0.0
0.0
0.0
0.0
0.0
0.0
0.0
0.0
0.0
0.0
0.0
0.0
0.0
-0.06013858709874675
-0.09030105417250536
-0.013867472957273813
-0.057338029117426734
-0.013879056843066949
-0.03490843883095799
-0.012253884974291243
-0.09264795546767235
-0.024274838573264016
-0.06819558517564869
-0.0015202122179594501
-0.0382596000297155
-0.0022934868491837393
-0.07218672760008726
-0.03233966563382076
-0.07756714080518395
-0.03498458490343018
-0.0397964787970521
-0.004729627375455312
-0.06939004252173299
-0.0075510136625329145
-0.091110310773239
-0.007254327051013219
-0.02160579633892925
-0.005232752520416527
-0.041134425700564296
-0.09570728418439559
-0.024035371504725584
-0.048410211388673456
-0.013644177488228125
-0.0033547116178836117
-0.07190758665344583
-0.007429630579744051
-0.03126301989830494
-0.0011548446227771726
-0.051046299878700095
-0.0019586946742615524
-0.07347589628726586
-0.017639855588239554
-0.0015896950788274868
-0.0019528067570126458
-0.06472657524854947
-0.013733410211676669
-0.07913940288009111
-0.01954407017860588
-0.07934529425805667
-0.041246073243963025
-9.359034933958759e-05
-0.028040927936831397
-0.00031391597715657647
-0.01963294476301018
-0.03669485341057999
-0.012256088815297404
-0.005478589267499901
-0.0027306293950535767
-0.07276626208521578
-0.008607120141812278
-0.07691411158961317
-0.0052577743876755755
-0.05350967806847008
-0.0066174112085022
-0.09269862037115591
-0.006724047486960253
-0.037058858520754884
-0.006441047141411798
-0.05852962739372349
-0.04090916261145646
-0.06149660633730878
-0.10083122689950227
-0.02562963596034588
-0.0910881465888316
-0.06361696373413966
-0.022894303946099346
-0.029426230738289982
-0.000308208373254747
-0.03986937983770698
-0.0006433340238471606
-0.05485931561014963
-0.015596666383353884
-0.0002495477756566717
-0.0005586446378282004
-0.053339277387327064
-0.08968255540759043
-0.02254674409108842
-0.03481212846782189
-0.010957984340064866
-0.0016270890480444857
-0.05492775524927559
-0.0029575641080869354
-0.060931123842735725
-0.007429510486642377
-0.0014964658507948768
-0.001378604060359539
-0.01608362313650083
-0.09474930128253505
-0.007674779514253426
-0.02145452781874094
-0.04643796630211818
-0.035812395359500586
-0.007819741576018039
-0.08230827694889793
-0.01389837244817022
-0.07036067611616208
-0.009126688675815068
-0.06810512889210059
-0.011908251996042493
-0.012994758686805141
-0.0008468192714701127
-0.04781971445986253
-0.0015661995814431416
-0.09938190374479074
-0.04109635362973036
-0.04724766448542905
-0.03442284750187435
-0.01655013936721376
-0.035961832153811636
-0.08568373978159537
-0.03304084354645433
-0.0701967746594913
-0.04904713835799311
-0.0034807046625364773
-0.001261320926315739
-0.052404832878653655
-0.0033241996069704356
-0.018515436854886765
-0.0060686231957357145
-0.08559965991596798
-0.014045431186587702
-0.049129927341421124
-0.003691538994609652
-0.06199634831963913
-0.005520798732083558
-0.0810671360382063
-0.002512622991923819
-0.030487536902882986
-0.003088074150195913
-0.012464883553140408
-0.04157857608315052
-0.0103196564281422
-0.018573536433098684
-0.07097496422541101
-0.02055501184903881
-0.05651749402888933
-0.0018229654291231437
-0.0052400596920614
-0.0012891141295896412
-0.06355579487686851
-0.08485549810745355
-0.017578375709504646
-1.3718700568689779e-05
-0.02445911814561045
1.705460567095706e-05
-0.07075608572454928
-0.004300259354424419
-0.0009580207953874899
-0.04750124845318379
-0.002148344892898803
-0.015580534044660333
-0.0003366539090433278
-0.03915759666538822
-0.0006316664622395984
-0.04718459680250378
-0.006715913533331493
-0.00027752510145329627
-0.0004984964962554546
-0.058787890389918974
-0.002109273999315365
-0.04949772761381903
-0.003155034618085644
-0.08738660965139491
-0.004543792896654893
-0.02306472434754703
-0.0042349624719305685
-0.08192122381368404
-0.05932107926013951
-0.03180681767014264
-0.04981248783325094
-0.021967954125561226
-0.09790215111661406
-0.028532332990785298
-0.07374435416347017
-0.014885398476297485
-0.024385498441496834
-0.019924454353474508
-3.0214779180300155e-05
-0.03026785810758597
-0.00014424721538031104
-0.04086141542694414
-0.010997177984264025
-3.384734121864229e-05
-0.00017559271932189
-0.08995994362450957
-0.02880632588856795
-0.01978509444075176
-0.049423104024638044
-0.08740911824464434
-0.024827320444612593
-0.00435018541561409
-0.0735019326596307
-0.00797915794590867
-0.08832514892614239
-0.00823164475804606
-0.05100769508196809
-0.00891024833662303
-0.09768076627418738
-0.053821531024926414
-0.009239141401505752
-0.07625388712330211
-0.013789127286398186
-0.04898836615000229
-0.005625593416841494
-0.0004873422084911895
-0.0006648485772491438
-0.0500367175966824
-0.00043619469544474253
-0.03532036042640399
-0.0008818732092907771
-0.015424519025829342
-0.008912759357396128
-0.027980888855649727
-0.08390106850196938
-0.07759660132807199
-0.0031904141506448416
-0.04333467513779382
-0.0041121259804295
-0.019552452558489215
-0.051232019608736495
-0.015861679768947645
-0.005217916010702687
-0.08034316690142235
-0.0033830785982370865
-0.012998093968365218
-0.09819589312460533
-0.07461494507957234
-0.09618742472275517
-0.05633829537672927
-0.07241159729262707
-0.008889876987677849
-0.032065648954327744
-0.00709769761551264
-0.039011555659707944
-0.024401208897174127
-0.02705811808319056
-0.001328555731341382
-0.0007762849841524834
-0.04456791625353691
-0.0026539407010321516
-0.07031698044774966
-0.025761139868879193
-0.0010736310782017055
-0.0016378169051644337
-0.00914366462636917
-0.0033273275436310856
-0.07523062137109048
-0.008675297697951941
-0.02447299245522379
-0.01218527405863333
-0.031061139754686523
-0.048521968341453496
-0.06243867608287224
-0.03101490235800663
-0.002561017721898302
-0.061875500235225936
-0.004218105186941774
-0.005950888739231673
-0.00023037253302463543
-0.029224955439742743
-0.00036920021050883045
-0.003287476614495772
-0.00035133988669747466
-0.034814146197462245
-0.0008096257797984394
-0.03213675377616749
-0.09629827383162794
-0.03615623043351327
-0.0489486464760433
-0.055477001482147376
-0.10019363977446581
-0.048802964750531926
-0.0010056999448256239
-0.04479819753021756
-0.0017082591431435538
-0.08261928664111892
-0.009768853279812745
-0.06007885801172615
-0.011238204641853702
-0.05372947061451255
-0.00027677497538497096
-0.02564601261257285
-0.0006329892070164591
-0.06516164144209688
-0.025627037870918613
-0.09504030284314678
-0.07076380306700676
-0.03814031060668207
-0.04305729387943072
-0.09645971271076657
-0.03280548520559475
-0.0397885436843859
-0.06716044626145201
-0.04173041409977911
-0.044019670451437766
-0.016944655682733005
-0.021093418938498067
-0.031529924616886584
-0.0833088939721365
-0.09211799767723192
-0.00965487614533141
-7.646143420797228e-05
-0.02946806941975886
-0.00019147043707525317
-0.03835646080844923
-0.005476625681227791
-7.501075484280916e-05
-0.00022284497072678862
-0.042511469930976147
-0.051104379675062296
-0.055638875727651804
-0.011975407313685033
-0.018824358701432176
-0.0237005304347938
-0.006141019820991628
-0.0870422867763366
-0.01252783173534924
-0.08008110987506566
-0.015432956100399216
-0.0036947865209428564
-0.0030832582813896136
-0.0355812772294307
-0.002117727439759978
-0.0003956069285678377
-0.00040896921568135295
-0.0029163185624344616
-0.0005789424903725466
-0.03363271785197173
-0.001174494743610029
-0.01231968203309826
-0.005256012387859466
-0.0865734209138607
-0.014489858161270554
-0.029715987504714037
-0.009923114687371939
-0.0913279039915558
-0.005660890523366774
-0.018985257967019394
-0.01334893461773663
-0.07366880855874139
-0.017131191418255576
-0.06512596596999558
-0.016196102802230602
-0.0007464653809113924
-0.0011622596401440343
-0.08539864580884338
-0.03172573363564389
-0.0006496047155226853
-0.04525619912899111
-0.0011802267345946385
-0.025968711137085883
-0.003127330802197362
-0.06664996267002438
-0.005337836097164656
-0.014107855785393046
1.0140143130377545e-05
-0.023004975196568876
-2.7922599450204046e-05
-0.007229937236360275
-0.02592765146896194
-2.1481434725008097e-05
1.2775174583249144e-05
-0.08235584196234008
-0.05733359922525312
-0.006136877355682742
-0.06704499928727317
-0.008695519581148618
-0.07045805836228142
-0.012379600613102795
-0.0018301548226809156
-0.0018869600916125928
-0.09081168088826642
-0.019369128381808258
-0.06076111602634929
-0.018339634219406445
-0.011152272505872116
-0.02020915682820759
-0.03963010776677245
-0.02769316806013234
-0.023165732282954033
-0.009048437873093155
-0.021297000484293692
-0.010267460606513002
-0.00207757419911377
-0.06229400428475232
-0.004341169710428205
-0.08024317235858346
-0.05012382766641393
-0.06333237727718313
-0.07721803996951232
-0.07255847013587997
-0.018343409129129955
-0.02293315098169578
-0.03729349777698892
-0.005963797383800444
-0.0764656836843028
-0.009971058127636545
-0.013704114659781214
-0.009550107481201265
-0.03449376663965359
-0.10060615056671852
-0.04933719747932304
-0.07205621605878208
-0.0067098799260394085
-0.06107876592434766
-0.008603542774006127
-0.0013632588111858882
-0.00044470160249352174
-0.03276103868162056
-0.0011186212452905442
-0.07917606493890494
-0.07710783093454524
-0.07945857186623753
-0.03936516394768612
-0.03476373842615224
-0.01962831546818866
-0.04402509865576983
-0.09137397135022882
-0.08971420853118978
-0.08543989884237448
-0.003459156854721516
-0.028418873136922873
-0.0037537509497845077
-0.08728235957722254
-0.004625448551243596
-0.04138574111388189
-0.005289216321827453
-0.05113211260975721
-0.00242877520083139
-0.055010845230462777
-0.00368762009784258
-0.023630061184458914
-0.0011943361872193993
-0.05258843684091954
-0.0021077752090855237
-0.03225191425946702
-0.013796130852549913
-0.029845639525004
-0.09718163481225861
-0.014124646955819211
-0.0664041916119492
-0.015934714590863
-0.048932565957139726
-0.02673961875693213
-0.0034759860887016636
-0.00022692071191966444
-0.026184033997333527
-0.000372640206503987
-0.038123096622930404
-0.03819736008888453
-0.0710748853859818
-0.015254793860776543
-0.0014867458638758105
-0.054267145880466265
-0.0025463018836068114
-0.011290868519782437
-0.04910786014219398
-0.010815907028349557
-0.03390528390860841
-0.0001491708902251836
-0.03431437547572093
-0.00040258921488361065
-0.03301542030611428
-0.0021470485442970063
-0.00022852406041908458
-0.0003085265447653805
-0.0008702242399118665
-0.0003920087725509786
-0.030684642255091894
-0.0011361050596200976
-0.006082669294251181
-0.001562692971745747
-0.05646909380392679
-0.0036868944080086694
-0.010807676932156226
4.1473327313689925e-06
-0.012490859208774158
5.387984550002173e-06
-0.08153608332922362
-0.027507172432618507
-0.015707453614195475
-0.03996700242652067
-0.061128415722834915
-0.0006274136542467261
-0.02974783345894954
-0.0011416826512047013
-0.03031109226247839
-0.002464146953884888
-9.358345313081957e-05
-0.00020048345459792918
-0.008798000867797477
-0.018137968640224645
-0.02830484489512465
-0.09717089995847555
-0.05323618893243731
-0.06259197395357297
-0.007145521446282009
-0.0020044768671200145
-0.001575051136142374
-0.09300844578800828
-0.09948595980966123
-0.07705894406016338
-0.024697113299502565
-0.0017950191491433259
-0.0023133237579594512
-0.058066775770311926
-0.0007071143218122174
-0.009244337607141892
-0.000965542524331268
-0.08721743464009994
-0.08860290606304502
-0.01867197351548829
-0.0005535564027495472
-0.04370856353196494
-0.0009932512189007754
-0.05565752533890353
-0.003160136101503272
-0.0015064253279568538
-0.0577425013788008
-0.004524550608311283
-0.03274898138202575
-0.001524570763816933
-0.0005505274434025308
-0.00039903382396918224
-0.08569539835791681
-0.0656459726536232
-0.08236550103707757
-0.04602869101363931
-0.08456457486099554
-0.007588088385268153
-0.08210501665077179
-0.0039038240460443664
-0.012603317504209885
-0.07208979073456846
-0.046054601512357275
-0.02009001149542155
-0.030289545534542387
-0.09926749224117694
-0.01671492886551358
-0.023167110975609143
-0.00923856548955191
-2.2915142793385592e-05
-5.817066777362042e-06
-7.395470848332817e-05
-0.028115690827753965
-0.004005266341294731
-0.025705072268310883
-9.221853829224242e-05
-0.024246877710953428
-0.05452592737219555
-0.019116404761069655
-0.06380657566124372
-0.06408370343603383
-0.017533687671880505
-0.042013396102864704
-0.012651648543585324
-0.07957195774225236
-0.05607150233167589
-0.07496181087285982
-0.0020221717720710474
-0.036454961924482
-0.0027978582470785307
-0.09399784559393452
-0.06965577643167269
-0.003156592626655565
-0.06712659373468034
-0.002022726579037944
-0.04948283915603102
-0.043956569280787915
-0.0043305937327246255
-0.002947982520546317
-0.009805593607404385
-0.02634497192079423
-0.0068069918649796375
-0.09103724973390688
-0.003191653605192586
-0.06511031369636645
-0.0019148052660779517
-0.006939647267000742
-0.02766767100118609
9.407900634976187e-06
-0.023712915594764926
-6.594428718120688e-05
-0.003493179700285462
-8.534996949966409e-05
-0.0219461685706383
-0.00016298678721360106
-0.022475275698836582
-0.022914496395267717
-0.06931338576769912
-0.005166731418014323
-6.312860218071046e-05
-0.023474819928493294
-0.00014669003821795164
-0.028780066872494535
-0.002744250137965282
-4.666755593978751e-05
-0.00013919634150424815
-0.06589994057882974
-0.04487574790249444
-0.0013978110974672356
-0.0500784663315506
-0.002282647860072472
-0.014210652983007764
-0.004344667195223469
-0.07936798102106137
-0.010166464697287271
-0.06705578020402742
-0.00429301001620597
-0.056312021830986825
-0.0058590714027323
-0.009687010146223392
-0.037574359516613615
-0.008677177516558564
-0.05494585345852137
-0.09045641588407208
-0.08986308013497478
-0.02290018385726641
-0.04436623715445494
-0.015509822136091065
-0.040410337907418756
-0.0173111717954353
-2.0045743494370432e-05
-0.00016007963454127644
-0.04168870082600201
-0.003834670493528744
-0.06530227392982917
-0.005956071410888731
-0.08350484353509718
-0.0051085235701999136
-0.04740533964805166
-0.006075898102638638
-0.033477989466751006
-0.0848817531300452
-0.06430001323681848
-0.03435422307474692
-0.03311919114862103
-0.09341576597236273
-0.0005054975748316234
-0.0001265932383258522
-0.01864214042999703
-0.00029362668504834906
-0.05747949560138554
-0.08956344722605554
-0.02969840681837505
-0.053291102886879424
-0.03419260100377687
-0.0054751008363547226
1.7019791252922596e-06
-0.008096965913012271
-0.018471857995504198
-0.0162920777245241
6.707952275341099e-06
9.438455408303746e-06
2.615998190243525e-06
-0.07033052439481871
-0.005407442554314783
-0.005926204051632289
-0.02847735003923391
-0.022878395112719784
-0.005375366977930812
-0.004865268822397655
-0.09988831557963324
-0.05626549690823674
-0.01576828182624951
-0.05054871482971437
-0.01368044833124229
-0.042700671698636415
-0.09727939706247594
-0.042765451358971605
-0.0024179659098629894
-0.05788467766514741
-0.003780571562144245
-0.09447464506192603
-0.011692124348064407
-0.07631967277225762
-0.01614090092453589
-0.09796468722434103
-0.05149713668817308
-0.006848652183416408
-0.07180779304635627
-0.010210009091089933
-0.048350797577678524
-0.015330613527861985
-0.0001100011051422961
-0.00033437875195354113
-0.08104842150704726
-0.022297753580770963
-0.002599879553786524
-0.0028770677266791744
-0.07690203613115412
-0.03288887864649517
-0.06553615377971564
-0.09587687799082335
-0.025049090072040585
-0.014869072636401602
-0.026682220793566996
-0.07808887651664355
-0.043135009564501746
-0.01885718499762889
-0.01098689930548739
-0.03255767463305689
-0.0076688281278226985
-0.04189823521762647
-0.007648906547055482
-0.020633586167012743
-0.004564935465958586
-0.009095297962959584
-0.07612259443185074
-0.08636783428546622
-0.03414130725722273
-0.00383526257981254
-0.004295992625051892
-0.019895697719878883
-0.0002341415120274752
-0.03804360899707207
-0.0004911423262163731
-0.049038989871795086
-0.00893119482253
-0.0002170766953985309
-0.0004596908883756059
-0.05445935253427466
-0.02612777649333633
-0.07450731666163268
-0.01748692997117791
-0.006779408020617993
-0.016881229687720423
-0.027485688948262078
-0.001147383751545919
-0.00025126893244765156
-0.0002431590052776602
-0.09367532111663095
-0.018079281243881654
-0.03210748631716185
-6.187302855819294e-05
-0.00020013580349546108
-0.08020795427082998
-0.0067910122883728915
-0.05532458978474258
-0.00819464727943072
-0.0645442150856296
-0.031408387829873735
-0.004487895138785138
-0.0724836325300332
-0.0076398669183576975
-0.08267505635176005
-0.004866010003232066
-0.015422875056307404
-0.0035685983751932706
-0.09936417916109487
-0.04843132480020852
-0.09568091446878073
-0.06033778312101585
-0.0004467426419209585
-0.021928429613178903
-0.0008632536435738575
-0.022343402231226425
-0.007827092171288316
-0.05306117276027436
-0.009304222748392205
2.8319890686646874e-06
-0.023280545747326922
-3.644585501532237e-05
-0.022669601290703903
-0.003748787937441392
8.570241964356799e-06
-2.2391267651011373e-05
-0.09232534700473492
-0.017263869314300285
-0.008864364350985764
-0.025387644639331092
-0.0591998610208413
-0.0008933869349657674
-0.037510260883779546
-0.0015206948720676724
-0.029695301166661785
-0.001171801065165801
-0.00246702265215142
-0.06358995500565827
-0.05742659274668604
-0.010735981308337904
-0.054454935222991996
-0.011179256741749048
-0.0009891370710288071
-0.00015049207171525858
-0.022277582843764455
-0.00031843240065663857
-0.0867932900986254
-0.07496838309588147
-0.07914344769810691
-0.019612148188374166
-0.002868804497262281
-0.06648146817125343
-0.005182198755638
-0.05892958864123089
-0.0010669863199916554
-0.007658582980483355
-0.0011582968602070476
-0.031770174956074426
-6.780748540632815e-05
-0.03142784480309281
-0.00025005492396986003
-0.049247643125625976
-0.04002476112474353
-0.00040009438843677323
-0.03927286282207002
-0.0008108601063202243
-0.09888682948032193
-0.029697656048004742
-0.0058876740563964325
-0.01074410505621053
-0.04909721372396705
-0.00023425248718870657
-0.029197614453779573
-0.0005662508134678539
-0.010578562889077905
-0.006647770599118996
-0.0234308313815297
-0.03180784556786089
-0.014625731857427701
-0.0007046178916364164
-0.04771538638823392
-0.001472041649680998
-0.017204153034382014
-0.0007192572107376814
-3.5920761644117074e-05
-7.667419756552802e-05
-0.008491756695937606
-0.01623610812196956
-0.0583200095626403
-0.018586598333081007
-0.031093425721709318
-0.08426964019409908
-0.03564499064071411
-0.04567996321211008
-0.00922983343104962
-0.01489594858543859
-0.0012646390714913267
-9.960065554691524e-05
-0.01981254507568073
-0.00019005096588213636
-0.02163027196967125
-0.021982287183079582
-0.010079718903187445
-0.025619618393109427
-0.047629380718011344
-0.0218737815811841
-0.00010871255705458368
-0.00035003674700440703
-0.027664834681352026
-0.09582880616712879
-0.008645018356470056
-0.0027991209286169537
-0.06986292421376467
-0.006800119127365176
-0.07635367070924624
-0.06202559172592947
-0.030582762828628738
-0.07989327817904035
-0.016008423004284573
-0.062288782104045794
-0.016427607729588605
-0.00924525983646236
-0.07241965404298543
-0.012847536972756783
-0.06183921143194032
-0.034321245635848235
-0.0696744991275952
-0.0005156071764485302
-0.00022351242171403358
-0.022739685745270518
-0.0006038143131440173
-0.013283574338527664
-0.004858170644529991
-0.08443908869059495
-0.012400657874436817
-0.07503298721148996
-0.05836785865989274
-0.029128400247157602
-0.015434761795955309