# vtk DataFile Version 1.0
2D Simulation C++
ASCII
DATASET UNSTRUCTURED_GRID
FIELD FieldData 1
NODES 1 2 int
2209 4256

POINTS 2209 double
0.0 0.0 0.0
0.0 1.0 0.0
1.0 1.0 0.0
1.0 0.0 0.0
0.0 0.02500000037252903 0.0
0.0 0.05000000074505806 0.0
0.0 0.07500000298023224 0.0
0.0 0.10000000149011612 0.0
0.0 0.125 0.0
0.0 0.15000000596046448 0.0
0.0 0.17499999701976776 0.0
0.0 0.20000000298023224 0.0
0.0 0.22499999403953552 0.0
0.0 0.25 0.0
0.0 0.2750000059604645 0.0
0.0 0.30000001192092896 0.0
0.0 0.32499998807907104 0.0
0.0 0.3499999940395355 0.0
0.0 0.375 0.0
0.0 0.4000000059604645 0.0
0.0 0.42500001192092896 0.0
0.0 0.44999998807907104 0.0
0.0 0.4749999940395355 0.0
0.0 0.5 0.0
0.0 0.5249999761581421 0.0
0.0 0.550000011920929 0.0
0.0 0.574999988079071 0.0
0.0 0.6000000238418579 0.0
0.0 0.625 0.0
0.0 0.6499999761581421 0.0
0.0 0.675000011920929 0.0
0.0 0.699999988079071 0.0
0.0 0.7250000238418579 0.0
0.0 0.75 0.0
0.0 0.7749999761581421 0.0
0.0 0.800000011920929 0.0
0.0 0.824999988079071 0.0
0.0 0.8500000238418579 0.0
0.0 0.875 0.0
0.0 0.8999999761581421 0.0
0.0 0.925000011920929 0.0
0.0 0.949999988079071 0.0
0.0 0.9750000238418579 0.0
0.02500000037252903 1.0 0.0
0.05000000074505806 1.0 0.0
0.07500000298023224 1.0 0.0
0.10000000149011612 1.0 0.0
0.125 1.0 0.0
0.15000000596046448 1.0 0.0
0.17499999701976776 1.0 0.0
0.20000000298023224 1.0 0.0
0.22499999403953552 1.0 0.0
0.25 1.0 0.0
0.2750000059604645 1.0 0.0
0.30000001192092896 1.0 0.0
0.32499998807907104 1.0 0.0
0.3499999940395355 1.0 0.0
0.375 1.0 0.0
0.4000000059604645 1.0 0.0
0.42500001192092896 1.0 0.0
0.44999998807907104 1.0 0.0
0.4749999940395355 1.0 0.0
0.5 1.0 0.0
0.5249999761581421 1.0 0.0
0.550000011920929 1.0 0.0
0.574999988079071 1.0 0.0
0.6000000238418579 1.0 0.0
0.625 1.0 0.0
0.6499999761581421 1.0 0.0
0.675000011920929 1.0 0.0
0.699999988079071 1.0 0.0
0.7250000238418579 1.0 0.0
0.75 1.0 0.0
0.7749999761581421 1.0 0.0
0.800000011920929 1.0 0.0
0.824999988079071 1.0 0.0
0.8500000238418579 1.0 0.0
0.875 1.0 0.0
0.8999999761581421 1.0 0.0
0.925000011920929 1.0 0.0
0.949999988079071 1.0 0.0
0.9750000238418579 1.0 0.0
1.0 0.9750000238418579 0.0
1.0 0.949999988079071 0.0
1.0 0.925000011920929 0.0
1.0 0.8999999761581421 0.0
1.0 0.875 0.0
1.0 0.8500000238418579 0.0
1.0 0.824999988079071 0.0
1.0 0.800000011920929 0.0
1.0 0.7749999761581421 0.0
1.0 0.75 0.0
1.0 0.7250000238418579 0.0
1.0 0.699999988079071 0.0
1.0 0.675000011920929 0.0
1.0 0.6499999761581421 0.0
1.0 0.625 0.0
1.0 0.6000000238418579 0.0
1.0 0.574999988079071 0.0
1.0 0.550000011920929 0.0
1.0 0.5249999761581421 0.0
1.0 0.5 0.0
1.0 0.4749999940395355 0.0
1.0 0.44999998807907104 0.0
1.0 0.42500001192092896 0.0
1.0 0.4000000059604645 0.0
1.0 0.375 0.0
1.0 0.3499999940395355 0.0
1.0 0.32499998807907104 0.0
1.0 0.30000001192092896 0.0
1.0 0.2750000059604645 0.0
1.0 0.25 0.0
1.0 0.22499999403953552 0.0
1.0 0.20000000298023224 0.0
1.0 0.17499999701976776 0.0
1.0 0.15000000596046448 0.0
1.0 0.125 0.0
1.0 0.10000000149011612 0.0
1.0 0.07500000298023224 0.0
1.0 0.05000000074505806 0.0
1.0 0.02500000037252903 0.0
0.9750000238418579 0.0 0.0
0.949999988079071 0.0 0.0
0.925000011920929 0.0 0.0
0.8999999761581421 0.0 0.0
0.875 0.0 0.0
0.8500000238418579 0.0 0.0
0.824999988079071 0.0 0.0
0.800000011920929 0.0 0.0
0.7749999761581421 0.0 0.0
0.75 0.0 0.0
0.7250000238418579 0.0 0.0
0.699999988079071 0.0 0.0
0.675000011920929 0.0 0.0
0.6499999761581421 0.0 0.0
0.625 0.0 0.0
0.6000000238418579 0.0 0.0
0.574999988079071 0.0 0.0
0.550000011920929 0.0 0.0
0.5249999761581421 0.0 0.0
0.5 0.0 0.0
0.4749999940395355 0.0 0.0
0.44999998807907104 0.0 0.0
0.42500001192092896 0.0 0.0
0.4000000059604645 0.0 0.0
0.375 0.0 0.0
0.3499999940395355 0.0 0.0
0.32499998807907104 0.0 0.0
0.30000001192092896 0.0 0.0
0.2750000059604645 0.0 0.0
0.25 0.0 0.0
0.22499999403953552 0.0 0.0
0.20000000298023224 0.0 0.0
0.17499999701976776 0.0 0.0
0.15000000596046448 0.0 0.0
0.125 0.0 0.0
0.10000000149011612 0.0 0.0
0.07500000298023224 0.0 0.0
0.05000000074505806 0.0 0.0
0.02500000037252903 0.0 0.0
0.5042824303103353 0.5017034058227663 0.0
0.7100535537032406 0.7016247743483158 0.0
0.7009062388524361 0.29367366489020147 0.0
0.29595029463151284 0.7048600789076751 0.0
0.2937539096304879 0.2949204158635004 0.0
0.7747247837769957 0.504533188713933 0.0
0.5014905225556218 0.2211136758742062 0.0
0.49083783591528296 0.7767841170579948 0.0
0.22184841600109664 0.4951947474576922 0.0
0.8272691577292384 0.8199056264435397 0.0
0.8185515735817886 0.16999886181441412 0.0
0.1789167234217812 0.828218621255261 0.0
0.16979363861094982 0.1787025489978599 0.0
0.6415050058444216 0.5646838746923202 0.0
0.5625314139034737 0.36567632199808037 0.0
0.4407224308433841 0.6335630548822297 0.0
0.36131669004212247 0.4261929614629921 0.0
0.8438529073579955 0.6425978615471422 0.0
0.6431110028565119 0.1545129354298269 0.0
0.34911561742751857 0.8406063787952648 0.0
0.15446095794208464 0.35423379207040073 0.0
0.6472828917851257 0.8406254124381934 0.0
0.8406296839807141 0.3571582912396297 0.0
0.15679034058868577 0.6417244340834941 0.0
0.35735935986009143 0.15581000704216424 0.0
0.6725412888607528 0.4478296839461854 0.0
0.5823463922317127 0.675380579221447 0.0
0.4455484547970996 0.31877727882053153 0.0
0.3275260252078998 0.5546728902949365 0.0
0.8807193115528571 0.53061275210366 0.0
0.5297880981649082 0.1119760875070926 0.0
0.4656691402337342 0.8845747245798063 0.0
0.1120723085306002 0.467406713504473 0.0
0.8962632548078554 0.7409593701990115 0.0
0.7409262222672409 0.10139730444827483 0.0
0.25772841645445077 0.89588562486835 0.0
0.10207751771667714 0.25711807688231464 0.0
0.7440082327348237 0.8820034588578798 0.0
0.11728513774736689 0.7427977019680779 0.0
0.8799099698474478 0.25530901302052633 0.0
0.2546906609977699 0.11741891569673703 0.0
0.7401191906931667 0.6033880981332311 0.0
0.6078686462228292 0.2498388436043461 0.0
0.3940592666939546 0.7468568311992246 0.0
0.2533209666838606 0.393808031899144 0.0
0.5222738991661322 0.5905924920685316 0.0
0.8972759383957268 0.8846417525383872 0.0
0.8831035681042252 0.0994836732567889 0.0
0.1147123354885147 0.8982460917983377 0.0
0.09936955614694902 0.11444917224880805 0.0
0.7602035580365124 0.3919230753035666 0.0
0.23731748177142997 0.608861216255504 0.0
0.3898047630823063 0.23487194020421662 0.0
0.896165499360113 0.4363517250997877 0.0
0.4356352247233203 0.10131236511840523 0.0
0.5634996557985854 0.8935416537227403 0.0
0.10145425259385932 0.5625430620757523 0.0
0.786871602375744 0.7415791957735351 0.0
0.7407194780953968 0.21017768500315012 0.0
0.25641553827358404 0.7880383060411146 0.0
0.21057077333201682 0.2557832849451279 0.0
0.7193687411168994 0.7993892822830749 0.0
0.7927589810638633 0.28260183739176326 0.0
0.20448066838856752 0.7161062298496643 0.0
0.2862300077293969 0.20041584248611524 0.0
0.5927743013951898 0.4938264514462248 0.0
0.48984938442338294 0.4108573803245195 0.0
0.4239688070016398 0.5451433383775804 0.0
0.6312383320475138 0.757029895530926 0.0
0.6507334944716031 0.3536572622881277 0.0
0.4948509476355344 0.6912532468673742 0.0
0.35297685899194936 0.6412220373810967 0.0
0.3484208666427233 0.3461531430507984 0.0
0.914795245496208 0.8143585064040402 0.0
0.8137379037681362 0.08283851645825731 0.0
0.18367615965007444 0.9153914251409353 0.0
0.08227444825313479 0.1837379757622449 0.0
0.8265391220453981 0.9091781965821039 0.0
0.0896633332996294 0.8268802743003166 0.0
0.907986956509256 0.17104955781156772 0.0
0.17069698147266263 0.08987866950645276 0.0
0.6968765697290357 0.5175828134193715 0.0
0.6477664297653378 0.6475660582043138 0.0
0.5116260450123263 0.3021628506015384 0.0
0.29890253287251883 0.4823085563133603 0.0
0.9162379132160797 0.606697936398638 0.0
0.6121072501568042 0.08480846260738492 0.0
0.394301329116705 0.9189114930290617 0.0
0.08209760445524313 0.3856815968361214 0.0
0.6628028024740099 0.9179020910174377 0.0
0.0799845472783307 0.661238509282255 0.0
0.917532888024201 0.3371190270322158 0.0
0.33703393599869225 0.08003422027847353 0.0
0.8201599678459469 0.436166910002651 0.0
0.5653555940933092 0.8151953969417257 0.0
0.43444257657555396 0.17608685877827238 0.0
0.1776028545920691 0.5633063556598437 0.0
0.43268010204533486 0.4566732483210857 0.0
0.8172582020793419 0.5694158757856642 0.0
0.5672412567042795 0.18061005328304708 0.0
0.4291390459766895 0.8171376388620312 0.0
0.17996527471198023 0.43001144636486394 0.0
0.7700357560857296 0.6671221787538899 0.0
0.6667183888618727 0.224673386908186 0.0
0.33055708760242636 0.7741781910081371 0.0
0.22507145033643286 0.3301267441580243 0.0
0.9276120353796687 0.6831992892463729 0.0
0.6835660991362895 0.07101885335569248 0.0
0.3116116069864032 0.9253080603510181 0.0
0.07273220665765648 0.3104977439164123 0.0
0.5599357716675893 0.7391668620982975 0.0
0.6008798730304803 0.4185029066648854 0.0
0.37423685430999926 0.49728902589825896 0.0
0.7326603508717762 0.4583917098236265 0.0
0.45455260220551696 0.26138527772929193 0.0
0.2658335470054526 0.541009632279972 0.0
0.5862203063683332 0.6130043545048933 0.0
0.41679239966754045 0.38563544267191974 0.0
0.5707278983086341 0.5409491212863877 0.0
0.5469427409907166 0.4474670824026035 0.0
0.9323305121830042 0.49564019724297753 0.0
0.49663892648405505 0.0650063832508578 0.0
0.5005709671433596 0.9305391950934071 0.0
0.06520867094755028 0.5013299466349014 0.0
0.8437343975949245 0.4978204344225596 0.0
0.4960639138454255 0.15273499081168085 0.0
0.4977048823822511 0.8406116958006045 0.0
0.1532823675254318 0.5017910292785793 0.0
0.8430935382429858 0.696916697296669 0.0
0.6966683777854517 0.15458423555580197 0.0
0.29976759721450896 0.8424900550851627 0.0
0.15523618236998285 0.3003653283832277 0.0
0.7699511232032875 0.8368433633673532 0.0
0.8336728722941228 0.2279708226230429 0.0
0.1638233707815938 0.7704883880136273 0.0
0.2271512818825359 0.16308726203472876 0.0
0.7601254656739075 0.32661557951912 0.0
0.2366905794745288 0.673007089247685 0.0
0.32470833216351647 0.23589460760216294 0.0
0.6381724955529611 0.30028038623319014 0.0
[...]
POINT_DATA 2209
SCALARS Psi double
LOOKUP_TABLE default
0.0
0.0
0.0
0.0
0.0
0.0
0.0
0.0
0.0
0.0
0.0
0.0
0.0
0.0
0.0
0.0
0.0
0.0
0.0
0.0
0.0
0.0
0.0
0.0
0.0
0.0
0.0
0.0
0.0
0.0
0.0
0.0
0.0
0.0
0.0
0.0
0.0
0.0
0.0
0.0
0.0
0.0
0.0
0.0
0.0
0.0
0.0
0.0
0.0
0.0
0.0
0.0
0.0
0.0
0.0
0.0
0.0
0.0
0.0
0.0
0.0
0.0
0.0
0.0
0.0
0.0
0.0
0.0
0.0
0.0
0.0
0.0
0.0
0.0
0.0
0.0
0.0
0.0
0.0
0.0
0.0
0.0
0.0
0.0
0.0
0.0
0.0
0.0
0.0
0.0
0.0
0.0
0.0
0.0
0.0
0.0
0.0
0.0
0.0
0.0
0.0
0.0
0.0
0.0
0.0
0.0
0.0
0.0
0.0
0.0
0.0
0.0
0.0
0.0
0.0
0.0
0.0
0.0
0.0
0.0
0.0
0.0
0.0
0.0
0.0
0.0
0.0
0.0
0.0
0.0
0.0
0.0
0.0
0.0
0.0
0.0
0.0
0.0
0.0
0.0
0.0
0.0
0.0
0.0
0.0
0.0
0.0
0.0
0.0
0.0
0.0
0.0
0.0
0.0
0.0
0.0
0.0
0.0
0.0
0.0
-0.05560819373038013
-0.08835215044035548
-0.012852451045269785
-0.054729798893449616
-0.012448367796229853
-0.033356396749581525
-0.011081226133029786
-0.09052198802199986
-0.022028776692290655
-0.06863509473806297
-0.001493158038097546
-0.0374743523517818
-0.002039175730491244
-0.06847165633916573
-0.029511945010432722
-0.07332183846011799
-0.03163801954101968
-0.03904217512642917
-0.004371080365616103
-0.06851397797583068
-0.006690083017051965
-0.09080423817495169
-0.006951494559293882
-0.020087381162554426
-0.004683371714619255
-0.0383866497526375
-0.09220900157213048
-0.02171279894419368
-0.04469292295893315
-0.013318896495863175
-0.00301536708190116
-0.07219208507659718
-0.006585200428417599
-0.031720760313494106
-0.0011031511803800632
-0.05117158551144276
-0.0017258328756462945
-0.07431613345489596
-0.016727142583138902
-0.001578411151927761
-0.001744640820973291
-0.06245238794221007
-0.012572040863184567
-0.07643818056571045
-0.017556195556397806
-0.07480725179278121
-0.04212971689572037
-0.00011654296826491044
-0.02769134816622463
-0.00027746799536079665
-0.01846579127941863
-0.034035881538026454
-0.011014127931252227
-0.005356282653812965
-0.002429909105354242
-0.0734976741962865
-0.007713080485766643
-0.07623436439210929
-0.004946071986057952
-0.05198610560399587
-0.005899844084097442
-0.09213073353777784
-0.00635636251980721
-0.03525402872112875
-0.005775147210205673
-0.05449232885090065
-0.037263007422890654
-0.057022588062093656
-0.09898214427753028
-0.023589134259399056
-0.08747991821666781
-0.0598401984019736
-0.020608843202727455
-0.03010472461492734
-0.0003195914396902115
-0.04012419988923488
-0.0005616280327845956
-0.056060868929313
-0.015017740955959718
-0.0002744614923027481
-0.0004972589974507949
-0.05042912406454621
-0.08637498195457059
-0.020380717975817055
-0.03165026511159426
-0.01095432540133557
-0.001492228075777986
-0.056113844013379814
-0.0025508922367935265
-0.062462171911731014
-0.006857479435053249
-0.0014956268614793001
-0.0012140602850898396
-0.015237799786299954
-0.09361382947518886
-0.006904021264819167
-0.019610807101708212
-0.042453489823411725
-0.03463900482799028
-0.0071552157546597986
-0.08090862043489436
-0.012420304773663172
-0.06877838148982157
-0.00842667709601576
-0.06613210651631085
-0.010660498387173601
-0.01336473195262983
-0.0007912532799309055
-0.048827367956775336
-0.0013431010906322291
-0.09675727916489144
-0.03789884593089971
-0.04325265288551879
-0.03241174606114103
-0.014952365959415619
-0.03296267171221638
-0.08156625058517408
-0.029912348585693863
-0.06575291203715841
-0.045196810659195605
-0.0034993197879522333
-0.0011061691242318767
-0.05389735063791732
-0.0028842075041454257
-0.017821179058641178
-0.005504090620835612
-0.08493495119272
-0.012725848459336983
-0.048772098944104274
-0.0034390706199980046
-0.06115558671988566
-0.004909766305193146
-0.08129631182492736
-0.0024416548724434436
-0.029414992073474023
-0.0027572557878482043
-0.011679263982405215
-0.039214130539805395
-0.009233786253078403
-0.017056359789591864
-0.06773622520576865
-0.01850357502212384
-0.057980419427668885
-0.0017998093425354684
-0.0046824450818108996
-0.0011137461695668895
-0.059312998440545404
-0.08133719407016048
-0.017422103178016325
-1.2972375161747873e-05
-0.025896439188300865
1.1068284961258218e-05
-0.06610640994181013
-0.0043427801296786125
-0.0008552717349197467
-0.04913872896514578
-0.0018409094984261226
-0.016095544258169534
-0.0003294343517597932
-0.04018123246154283
-0.000546296342723717
-0.048654448400471506
-0.006296465434146144
-0.00030021893037749346
-0.00043815815906779015
-0.058895698258701515
-0.0020318465306718232
-0.04879261446497863
-0.0028049299537136695
-0.08742202188879808
-0.00437517905030781
-0.02174969063479608
-0.0037931335991189313
-0.07934105401658403
-0.05565079800480437
-0.028813930950772133
-0.04762404418578169
-0.01999347724391623
-0.0954016382775811
-0.025788813566903466
-0.07047817352020669
-0.013518451726700197
-0.022005646545108646
-0.020700855440186267
-4.352455116707501e-05
-0.030808402809558925
-0.0001254730727435042
-0.04219239059364903
-0.010612470870759293
-5.035617465885396e-05
-0.00015576797677897678
-0.08579922814099646
-0.0267418383983997
-0.017747623909388464
-0.04605146227740558
-0.0846821125382365
-0.024184724300757802
-0.003981759195536429
-0.07319540692643989
-0.007060833422153369
-0.08713073591408176
-0.007679798088331317
-0.04897119476808842
-0.00796726243413235
-0.09632287872575002
-0.05240640941230499
-0.00852342668996995
-0.07442661034646719
-0.012343956726549256
-0.05077951999939727
-0.0051823310840601496
-0.0005064493902657603
-0.0005793474228010986
-0.05079902256999696
-0.00045624266155634496
-0.03486612109057193
-0.0007770052571361184
-0.014602532198545978
-0.00801869850910719
-0.025793484045068787
-0.07962088116305052
-0.07744031410306335
-0.003048223472766626
-0.04219049262355083
-0.0036818627270560652
-0.01819550882209322
-0.04825017728488456
-0.01425856324503585
-0.005030245375338505
-0.08056237580237122
-0.003012740370097213
-0.011921784611648766
-0.09699280984240931
-0.07074991078840101
-0.0954449625835348
-0.05187261895731938
-0.06785684790839333
-0.00842344050216204
-0.030176031961161323
-0.006363193481165151
-0.03562172123294887
-0.022302762274281386
-0.02442389002784799
-0.001348616848501875
-0.0006800359528439155
-0.046184104521047785
-0.0023115995099380056
-0.07097708997614449
-0.024934951118740847
-0.0010872840003064703
-0.001474477635289917
-0.008892722953090834
-0.0029831904447302064
-0.07563405010925532
-0.007778356912114159
-0.023022993334078576
-0.01099246334937304
-0.028516788505540736
-0.04443570022093856
-0.057975003177462486
-0.030738140118818345
-0.0023951971397336287
-0.061680331931293485
-0.0037100603245970687
-0.006235590785169066
-0.00021672644822880654
-0.03100799779222888
-0.00031320362210021386
-0.0034048323883617638
-0.0003199473390696916
-0.036649688410539026
-0.0006900202668856221
-0.029099813485835714
-0.09285402296682044
-0.03341024221252517
-0.045543727439206406
-0.05120608685307444
-0.09750624694298468
-0.049349303971847495
-0.000998956781072686
-0.04442411757998865
-0.0015055877242338713
-0.0810616540889918
-0.009093825093392773
-0.057801471411584704
-0.010064113283764747
-0.054687480613067524
-0.00030748052359522886
-0.025064426302767475
-0.0005664171804216985
-0.0618648065449883
-0.02306039207927594
-0.09199567393070356
-0.06614766041456076
-0.03469471826296234
-0.039340416648948225
-0.09449264091126927
-0.03014189126455957
-0.03616592496547921
-0.0632516890270772
-0.03948755633298506
-0.04131471129789891
-0.015316137123791148
-0.019022785580582374
-0.02882202871993695
-0.07956383927918065
-0.08852606833179678
-0.010220639795245613
-8.117551932900326e-05
-0.030925252645863863
-0.00016312748200198292
-0.03990328141362549
-0.005203250245183093
-9.223916828597368e-05
-0.00019372874239762664
-0.03877908354940533
-0.04926478339938358
-0.0517646069701102
-0.010953630874742626
-0.016900072175499905
-0.02287211966249606
-0.005571538595826375
-0.08560826525991451
-0.011242191207525407
-0.08064744292928461
-0.01437422386822785
-0.0035567839298481724
-0.0027538529236180607
-0.037307838288298104
-0.0018926127588110879
-0.0004114628057179591
-0.0003484626564535322
-0.0029570477981600484
-0.0005145710031266561
-0.03545375565632574
-0.0009975842960940336
-0.011857865310946156
-0.004725797589684302
-0.0861798608139913
-0.01314458385304617
-0.026823751226486364
-0.00949783679044582
-0.09081563820008666
-0.00509059269453505
-0.01746797637901379
-0.012301858090571913
-0.07096954465177883
-0.01539694691453088
-0.0660826689756045
-0.015588453307370288
-0.0007692559910076445
-0.001040152953461229
-0.08145995137766839
-0.03234402754549915
-0.0006437231189155502
-0.04545359657052881
-0.0010330039161150343
-0.025559816419636023
-0.0028897095746882656
-0.06658494526860838
-0.004699938795426618
-0.014948693303838164
3.1480219103178252e-06
-0.02361178080699764
-2.5428975986067383e-05
-0.006807550135720008
-0.027570217033989368
-1.976546764269952e-05
7.584588289488923e-06
-0.0801926167443237
-0.05641661482508039
-0.005661802530658025
-0.06569740632769368
-0.00777184763243911
-0.07144611589205031
-0.011561498289997366
-0.001808801597500155
-0.0016818188065298061
-0.08821663354050652
-0.017878768454580564
-0.05747705004679759
-0.016480702817476135
-0.010146204855210398
-0.018156078293394846
-0.038017049296036234
-0.025135012846588974
-0.022063684968271668
-0.00814778043150543
-0.019353973114239025
-0.010218987044828945
-0.0018895989480975305
-0.06302777000572173
-0.003779683027628574
-0.0796340912855155
-0.04599408015146389
-0.060509825634241815
-0.07304858074022767
-0.0704490295766466
-0.0168067710668658
-0.020641275320806843
-0.036345444550385325
-0.005489177076606157
-0.0753708886914427
-0.008842794618177623
-0.012931335430432057
-0.008551214415316888
-0.03216230630862356
-0.09866626702447438
-0.04556210498054068
-0.07095677801878385
-0.00624104347400607
-0.05932149141073704
-0.007707961305424086
-0.0014317665393860834
-0.0003883619223369291
-0.034906760658895065
-0.000954318306471998
-0.07472225595152526
-0.07255447841165898
-0.07609924359342814
-0.03604833027174664
-0.03248964471585932
-0.017685326011269802
-0.04061075273545776
-0.08739573583753792
-0.08640208536548614
-0.08551708069809591
-0.0033499786793536354
-0.027142586808659868
-0.0033569978679458645
-0.08678524899022273
-0.004385371273335253
-0.039855689056007074
-0.004741887278112177
-0.05105066674307973
-0.002324501828440124
-0.054416968391417235
-0.0032840811531809205
-0.023872765771741508
-0.0011172472296228748
-0.05290112776681599
-0.0018494539056926188
-0.03050726901303726
-0.012482151469321062
-0.027267905894431895
-0.09405179793664284
-0.01302372551060208
-0.06363293390380168
-0.01432614508853823
-0.045792729249932586
-0.02415316642566811
-0.0037083038622892864
-0.00020735488633478482
-0.02811386600370353
-0.00031360479582617876
-0.03467516390844874
-0.03508067885063179
-0.06685008151510405
-0.015289902073421907
-0.0013812364091246236
-0.05524437917026818
-0.002206357230645422
-0.010521140550528942
-0.04670260546750601
-0.009690105482564774
-0.03481088820992378
-0.00017109873859044516
-0.034327921811658425
-0.0003523121163460391
-0.03495931657027761
-0.0019358995534624395
-0.00024830818063300826
-0.00026785235946052483
-0.0009072833851488268
-0.00034186309820292596
-0.0328499302925148
-0.0009778003012360175
-0.006071853167800275
-0.0013864137931188926
-0.0577864059280182
-0.00321028078315522
-0.0109534718576451
2.865579510733822e-06
-0.013638049410579276
4.5859897134258e-06
-0.07949394865088799
-0.025833565236931404
-0.014158165572683184
-0.03698099335115462
-0.061847393230816186
-0.0006520766211522142
-0.029128345179562906
-0.0010215370666951471
-0.03207690066803772
-0.0022842356108148344
-0.00010799587528870782
-0.00017175560671987784
-0.007975144265234156
-0.016417311990799877
-0.02706362769068874
-0.09512301015848455
-0.04906243215246431
-0.06386499358380333
-0.006493787115799348
-0.001970508100267228
-0.0013862725638431864
-0.09132015569340937
-0.09819169297781574
-0.07757492890596007
-0.023710695761120563
-0.001768114840749773
-0.002081872447040275
-0.059651721427918025
-0.0007266455763596779
-0.00865059922440074
-0.0008532138411091219
-0.08522494707008715
-0.08454423329975827
-0.0191293655517512
-0.0005281962101740797
-0.044525779094196624
-0.0008572825511094815
-0.05147508958293702
-0.0031514078110055632
-0.0013141654640429047
-0.059233978590333344
-0.004021429249339878
-0.03463786874783354
-0.0013125657407102647
-0.00056704793559943
-0.000345144467810164
-0.08135668384883143
-0.06115196554111409
-0.0792291589554267
-0.042170845816902766
-0.08160450153792469
-0.007316553463779653
-0.08207627301186853
-0.003495243770137733
-0.011460195125605073
-0.06948181209105687
-0.04239229348703492
-0.01818930866081419
-0.02739198735382753
-0.09746518578072114
-0.01522067792565666
-0.020864995375458297
-0.009986184440538053
-2.9572035825017494e-05
-1.4554605567648411e-05
-6.542649437641586e-05
-0.029887482105007263
-0.003815141180174028
-0.026882177222716328
-7.9783674344563e-05
-0.02244023872153937
-0.051229757021226
-0.017220088459991654
-0.059122649708381776
-0.05986192015552992
-0.016386688896934874
-0.03924630720868072
-0.011346571849249377
-0.0756602184425201
-0.051713582471618946
-0.07517347534743482
-0.0019699787619484417
-0.0353763569691944
-0.002497042600895389
-0.09244962439656475
-0.06959549586804417
-0.003020006455370047
-0.06733252470324523
-0.0019597763740517187
-0.048442244388746676
-0.04307678685605542
-0.003848322627218542
-0.002617514894860823
-0.009319044167834996
-0.02456681920774908
-0.006107125219175199
-0.0884920075166286
-0.00312030482016864
-0.0660605826960779
-0.00168585260432798
-0.0062018006648369844
-0.028709286363819423
-2.3289646866725963e-06
-0.02364092941104848
-5.828681840429555e-05
-0.0036960307799603106
-8.270554763189285e-05
-0.023615377108313705
-0.0001404995643279003
-0.020625816822645787
-0.020677386823557253
-0.06571869632984288
-0.00549238196170278
-6.412750916395283e-05
-0.025181687035075766
-0.0001237481341049865
-0.030611163806732067
-0.002567934365863028
-5.815114573653132e-05
-0.00012159135805704795
-0.06231000832668146
-0.04504757579026596
-0.0013551234792516216
-0.04974422689482903
-0.002015719698943129
-0.013716285774620699
-0.003920537166332823
-0.07919996443567301
-0.009145306280698859
-0.06653252888370782
-0.004067266206202057
-0.05513539699080785
-0.005211610033913067
-0.00913406002359263
-0.03550591980566675
-0.007765971790194098
-0.05224221552078253
-0.09021551721098622
-0.08973205782859185
-0.02138080983665345
-0.04133981736803594
-0.01390980102832367
-0.04166131087290403
-0.01675938139888251
-3.7672018727053295e-05
-0.000141719456287902
-0.041212687668811976
-0.0035708902013293444
-0.06455228803530921
-0.005294756132760608
-0.08286510919976547
-0.004820657272983824
-0.04587553734549631
-0.005446204343765437
-0.03038694935307961
-0.08052172249568446
-0.059765758198777115
-0.03130453290486658
-0.029951384587886338
-0.09241626351593808
-0.0005184269183701096
-0.00011519315512662488
-0.020470777449041466
-0.0002582892744524981
-0.05339858167696939
-0.0887144373801385
-0.026821535130205503
-0.04897417595643196
-0.031001646841354397
-0.005156223295446662
5.853101241316567e-07
-0.00893227765675384
-0.01983895052981058
-0.017105797438004406
5.676171058356456e-06
7.175176660815259e-06
1.2038208824056294e-06
-0.06587400413539883
-0.005180751206953339
-0.0056813376201342025
-0.026932155004475277
-0.021413689545074388
-0.004819483391970996
-0.004371509458555187
-0.09739406701648784
-0.05265871597398768
-0.014695027438360363
-0.04775142714909539
-0.012293156923534922
-0.039526615089381364
-0.09473015458509458
-0.04270915440536098
-0.0022727893520807984
-0.0574692081027972
-0.003344280131044265
-0.09074532903852361
-0.010730157266154115
-0.07406484810297051
-0.014463456865333731
-0.09474968964819361
-0.050211451448491116
-0.006313340894487699
-0.07041398713473855
-0.009107508181809356
-0.04966163124621381
-0.01480903282579729
-0.00013285681156210283
-0.00029952675978955266
-0.08149277023565311
-0.021201973584188825
-0.0025345246097387883
-0.002582717683787144
-0.073340095830299
-0.030493720610312285
-0.06138312098301484
-0.09494560602926091
-0.02284001410305408
-0.013486020520131422
-0.02421023103493423
-0.07363389309294478
-0.041071271631845936
-0.017743455083976286
-0.00986134865955369
-0.030037380588302708
-0.007216675219693763
-0.040041419252167414
-0.006833041794964263
-0.020070499279671132
-0.004146508995326783
-0.008094357425018872
-0.07313245823520742
-0.08625537405481495
-0.032817430966951285
-0.0036724074774626097
-0.0038468888311564567
-0.020608425872142757
-0.0002404251396172984
-0.03875112309939127
-0.0004253630895004637
-0.05051128555021597
-0.008497844316601054
-0.00024261361841594278
-0.00040508617561766584
-0.05129026111636187
-0.02360681407431191
-0.06986645957794671
-0.016794300093270074
-0.006109637346662979
-0.015354859933330398
-0.028966162766842923
-0.001011923882514818
-0.00025512566548364365
-0.00021045301470428397
-0.09052709200690447
-0.01885669273632658
-0.03285814118534192
-7.376274040784116e-05
-0.00017230452109141765
-0.07928085773070306
-0.006396718801190829
-0.05359233734357151
-0.007323138399273428
-0.06000818666290187
-0.030685641951507
-0.004133770226413147
-0.07192427149264358
-0.006769562816081104
-0.08304595834828638
-0.004711371334705109
-0.01428653394918286
-0.003182542187260942
-0.09762008988410606
-0.044461137769131596
-0.09495262382703143
-0.0612573424773061
-0.00047102561148192697
-0.02119949564653091
-0.0007705814041174563
-0.020123142520435462
-0.007823275439232807
-0.054420990638613186
-0.009965777618612762
-3.564691157744956e-06
-0.024346195155693067
-3.3261012075501615e-05
-0.02427642948342941
-0.003539099677189599
4.47376332357714e-06
-2.078026097087089e-05
-0.08845733174477752
-0.016320408489537495
-0.007983101618212002
-0.023326074391610382
-0.05971046522424224
-0.0008955228759135767
-0.0368944323908439
-0.0013464927770001141
-0.027385971461422135
-0.0010641149444707212
-0.0021252927074071493
-0.06163866639332779
-0.055077330930250995
-0.009992795194980874
-0.05210647255340826
-0.010011239906877793
-0.001024932548134898
-0.00013375003999955938
-0.024006528400699556
-0.00027876005222162884
-0.08451847794166216
-0.07481746932630039
-0.07833866114671315
-0.019344730168685015
-0.002636515231257705
-0.06675160645574288
-0.004568112296588005
-0.06030860818555548
-0.0010784965435069176
-0.007020085394108435
-0.0010266215185141174
-0.03260591411029883
-8.82555301317991e-05
-0.03139015228893778
-0.00021982129122809018
-0.04566913686883677
-0.04066594380192818
-0.0004168559787468677
-0.03919875352243303
-0.000713636379141318
-0.09762838660420381
-0.028827776024557147
-0.00538335421594788
-0.009578767841906869
-0.05002402114366378
-0.0002605751041940525
-0.028726204291669485
-0.0005016165442480138
-0.010094599797198461
-0.0059579654243964685
-0.021689474248570085
-0.03058800268751389
-0.015025436819196672
-0.0006615301584590717
-0.04844477615728471
-0.0012567681617415996
-0.018691613785759422
-0.0006587983908758162
-3.927159085981405e-05
-6.630297793828892e-05
-0.007699069419107508
-0.014626427080978426
-0.05390057449217722
-0.016800802687652973
-0.028229177943864793
-0.08081612910678532
-0.032405521080935376
-0.04431591239784328
-0.00847940265110127
-0.013328027478279611
-0.0013000150800462965
-9.424424031662682e-05
-0.021496443746585207
-0.00016479355837621378
-0.01948512399328348
-0.020782530610613602
-0.009065417380020016
-0.023428411906547777
-0.04873702664989495
-0.021355514605198397
-0.0001323651223392896
-0.0003076594159040637
-0.02537240089926303
-0.09477235666736429
-0.008499132899323473
-0.0024880294379855425
-0.07038416071239596
-0.0060525066791034515
-0.07178603329304584
-0.06052410750558004
-0.027600356560473452
-0.07828509227066897
-0.014783419443029735
-0.05939051770274205
-0.014744165334377557
-0.00850588415828845
-0.07052829989896253
-0.011489633390232554
-0.05743500103017056
-0.03117369513542915
-0.0657160899848062
-0.0005483729236615511
-0.0001943568143530981
-0.024681353756887868
-0.0005186614304770504
-0.012793946200190387
-0.0043959460282090405
-0.08406677384841925
-0.011173101404279406
-0.07151956333323929
-0.053836309643199624
-0.02631632430633361