# vtk DataFile Version 1.0
2D Simulation C++
ASCII
DATASET UNSTRUCTURED_GRID
FIELD FieldData 1
NODES 1 2 int
2209 4256

POINTS 2209 double
0.0 0.0 0.0
0.0 1.0 0.0
1.0 1.0 0.0
1.0 0.0 0.0
0.0 0.02500000037252903 0.0
0.0 0.05000000074505806 0.0
0.0 0.07500000298023224 0.0
0.0 0.10000000149011612 0.0
0.0 0.125 0.0
0.0 0.15000000596046448 0.0
0.0 0.17499999701976776 0.0
0.0 0.20000000298023224 0.0
0.0 0.22499999403953552 0.0
0.0 0.25 0.0
0.0 0.2750000059604645 0.0
0.0 0.30000001192092896 0.0
0.0 0.32499998807907104 0.0
0.0 0.3499999940395355 0.0
0.0 0.375 0.0
0.0 0.4000000059604645 0.0
0.0 0.42500001192092896 0.0
0.0 0.44999998807907104 0.0
0.0 0.4749999940395355 0.0
0.0 0.5 0.0
0.0 0.5249999761581421 0.0
0.0 0.550000011920929 0.0
0.0 0.574999988079071 0.0
0.0 0.6000000238418579 0.0
0.0 0.625 0.0
0.0 0.6499999761581421 0.0
0.0 0.675000011920929 0.0
0.0 0.699999988079071 0.0
0.0 0.7250000238418579 0.0
0.0 0.75 0.0
0.0 0.7749999761581421 0.0
0.0 0.800000011920929 0.0
0.0 0.824999988079071 0.0
0.0 0.8500000238418579 0.0
0.0 0.875 0.0
0.0 0.8999999761581421 0.0
0.0 0.925000011920929 0.0
0.0 0.949999988079071 0.0
0.0 0.9750000238418579 0.0
0.02500000037252903 1.0 0.0
0.05000000074505806 1.0 0.0
0.07500000298023224 1.0 0.0
0.10000000149011612 1.0 0.0
0.125 1.0 0.0
0.15000000596046448 1.0 0.0
0.17499999701976776 1.0 0.0
0.20000000298023224 1.0 0.0
0.22499999403953552 1.0 0.0
0.25 1.0 0.0
0.2750000059604645 1.0 0.0
0.30000001192092896 1.0 0.0
0.32499998807907104 1.0 0.0
0.3499999940395355 1.0 0.0
0.375 1.0 0.0
0.4000000059604645 1.0 0.0
0.42500001192092896 1.0 0.0
0.44999998807907104 1.0 0.0
0.4749999940395355 1.0 0.0
0.5 1.0 0.0
0.5249999761581421 1.0 0.0
0.550000011920929 1.0 0.0
0.574999988079071 1.0 0.0
0.6000000238418579 1.0 0.0
0.625 1.0 0.0
0.6499999761581421 1.0 0.0
0.675000011920929 1.0 0.0
0.699999988079071 1.0 0.0
0.7250000238418579 1.0 0.0
0.75 1.0 0.0
0.7749999761581421 1.0 0.0
0.800000011920929 1.0 0.0
0.824999988079071 1.0 0.0
0.8500000238418579 1.0 0.0
0.875 1.0 0.0
0.8999999761581421 1.0 0.0
0.925000011920929 1.0 0.0
0.949999988079071 1.0 0.0
0.9750000238418579 1.0 0.0
1.0 0.9750000238418579 0.0
1.0 0.949999988079071 0.0
1.0 0.925000011920929 0.0
1.0 0.8999999761581421 0.0
1.0 0.875 0.0
1.0 0.8500000238418579 0.0
1.0 0.824999988079071 0.0
1.0 0.800000011920929 0.0
1.0 0.7749999761581421 0.0
1.0 0.75 0.0
1.0 0.7250000238418579 0.0
1.0 0.699999988079071 0.0
1.0 0.675000011920929 0.0
1.0 0.6499999761581421 0.0
1.0 0.625 0.0
1.0 0.6000000238418579 0.0
1.0 0.574999988079071 0.0
1.0 0.550000011920929 0.0
1.0 0.5249999761581421 0.0
1.0 0.5 0.0
1.0 0.4749999940395355 0.0
1.0 0.44999998807907104 0.0
1.0 0.42500001192092896 0.0
1.0 0.4000000059604645 0.0
1.0 0.375 0.0
1.0 0.3499999940395355 0.0
1.0 0.32499998807907104 0.0
1.0 0.30000001192092896 0.0
1.0 0.2750000059604645 0.0
1.0 0.25 0.0
1.0 0.22499999403953552 0.0
1.0 0.20000000298023224 0.0
1.0 0.17499999701976776 0.0
1.0 0.15000000596046448 0.0
1.0 0.125 0.0
1.0 0.10000000149011612 0.0
1.0 0.07500000298023224 0.0
1.0 0.05000000074505806 0.0
1.0 0.02500000037252903 0.0
0.9750000238418579 0.0 0.0
0.949999988079071 0.0 0.0
0.925000011920929 0.0 0.0
0.8999999761581421 0.0 0.0
0.875 0.0 0.0
0.8500000238418579 0.0 0.0
0.824999988079071 0.0 0.0
0.800000011920929 0.0 0.0
0.7749999761581421 0.0 0.0
0.75 0.0 0.0
0.7250000238418579 0.0 0.0
0.699999988079071 0.0 0.0
0.675000011920929 0.0 0.0
0.6499999761581421 0.0 0.0
0.625 0.0 0.0
0.6000000238418579 0.0 0.0
0.574999988079071 0.0 0.0
0.550000011920929 0.0 0.0
0.5249999761581421 0.0 0.0
0.5 0.0 0.0
0.4749999940395355 0.0 0.0
0.44999998807907104 0.0 0.0
0.42500001192092896 0.0 0.0
0.4000000059604645 0.0 0.0
0.375 0.0 0.0
0.3499999940395355 0.0 0.0
0.32499998807907104 0.0 0.0
0.30000001192092896 0.0 0.0
0.2750000059604645 0.0 0.0
0.25 0.0 0.0
0.22499999403953552 0.0 0.0
0.20000000298023224 0.0 0.0
0.17499999701976776 0.0 0.0
0.15000000596046448 0.0 0.0
0.125 0.0 0.0
0.10000000149011612 0.0 0.0
0.07500000298023224 0.0 0.0
0.05000000074505806 0.0 0.0
0.02500000037252903 0.0 0.0
0.5034611522966702 0.502669311132991 0.0
0.7098745547075507 0.7018799897835499 0.0
0.7015454512520974 0.2927159649651124 0.0
0.2952377152396862 0.7057039515881588 0.0
0.292859116593838 0.29579010221380564 0.0
0.7757357858801838 0.5031306857047073 0.0
0.5006147273681897 0.22050329408658384 0.0
0.4910237161895621 0.777779955124943 0.0
0.2210304280795623 0.496410586501734 0.0
0.8264930507608638 0.8199996966005201 0.0
0.8195138226220636 0.16974612098602915 0.0
0.17810423223627522 0.8276456004506505 0.0
0.16975028312278234 0.17838038563871458 0.0
0.6416515608358309 0.5645758778543182 0.0
0.561987895671816 0.3655979672381549 0.0
0.44015082945160483 0.6346054134690704 0.0
0.36026275472169117 0.42867732458490354 0.0
0.8438419853168979 0.6421811814519737 0.0
0.6431109802394319 0.1539361544225714 0.0
0.3491968836639202 0.8411534665947834 0.0
0.15384399537040502 0.35460347847199386 0.0
0.6458712899513106 0.8418250281324975 0.0
0.8414779134915432 0.3563040352219891 0.0
0.15551230509766625 0.6417633913909854 0.0
0.3566595416227041 0.15592417414867565 0.0
0.6722988408173814 0.44632794350871247 0.0
0.5820584933493981 0.6760709602252603 0.0
0.4446856040189785 0.3202413888698886 0.0
0.32615890888697263 0.5565080641329011 0.0
0.8817893913583486 0.5296078617506708 0.0
0.5298237025098125 0.11165546319515597 0.0
0.4658109541224441 0.8851886352155047 0.0
0.11107906335673395 0.4684069811865244 0.0
0.8958124575854604 0.7405489424246035 0.0
0.7406687599554395 0.10122891336996058 0.0
0.25719729092822496 0.8956306650592952 0.0
0.10204635530703532 0.2572419390132825 0.0
0.7426952273839267 0.8827403670932182 0.0
0.11588919556773389 0.7424178772102344 0.0
0.8813041631679431 0.25540446507044917 0.0
0.2548137716642657 0.11685841098869336 0.0
0.740963941131212 0.602470099249334 0.0
0.6076214867425125 0.24946843442570674 0.0
0.3937662853312786 0.7477573249085296 0.0
0.2522728230381198 0.3948869226608963 0.0
0.5216343165955776 0.5915825396133769 0.0
0.8969286006443292 0.8848096050126906 0.0
0.8840657095768854 0.09958271844216807 0.0
0.11365418571755581 0.8980080599351934 0.0
0.09973622076188292 0.11386604162436562 0.0
0.7610928059794254 0.3898768909056043 0.0
0.23694390510283259 0.6098459262818976 0.0
0.38874365031963304 0.23526785126569938 0.0
0.8970391750711948 0.43528893564409304 0.0
0.4347856958546313 0.100619455248057 0.0
0.5633546808294206 0.8943072144176797 0.0
0.10090516224214946 0.5628971049711599 0.0
0.7866625260223474 0.7412561415139078 0.0
0.741308523978695 0.2100679240949367 0.0
0.25566920325007647 0.7874793489113974 0.0
0.20971228098039268 0.25600953907879187 0.0
0.7184040666989427 0.8001346085408754 0.0
0.7938355907891039 0.2816738320027373 0.0
0.2036665008548349 0.7161971658888636 0.0
0.28602535343461316 0.19996364195552527 0.0
0.5923232423291951 0.4938907542863328 0.0
0.4888788498337454 0.4118199453330693 0.0
0.4232335723238825 0.5464299743654791 0.0
0.6307134847369698 0.7583242731725153 0.0
0.6507686978320405 0.3526290141273054 0.0
0.4946890551057924 0.6923774378162377 0.0
0.35219173383300156 0.6426970088029568 0.0
0.3474314114433453 0.34755502873816996 0.0
0.9139775126619809 0.814359233259909 0.0
0.8143180848120709 0.08280638881698389 0.0
0.1829521119301715 0.91497569877778 0.0
0.08234903088460711 0.18353038881131917 0.0
0.826149444097905 0.9092908677243371 0.0
0.08909054172557022 0.8263168962962993 0.0
0.9089804450862934 0.17107867259990972 0.0
0.17114504898254676 0.08880266588509547 0.0
0.6976201365905026 0.5166256770245744 0.0
0.6476826741089816 0.6480670674134902 0.0
0.51094037567761 0.30270633612764347 0.0
0.2980924820828885 0.4845326143126182 0.0
0.9168070537077084 0.6056386039187711 0.0
0.611379897664414 0.08362330312643503 0.0
0.39445743220363844 0.9193440827608775 0.0
0.08119051372507136 0.38622591809680834 0.0
0.6617667507422662 0.9183856843766257 0.0
0.07901586667615548 0.6604888354159651 0.0
0.9182774316066054 0.33680524088336317 0.0
0.3370155628494805 0.07935710643642749 0.0
0.8209381993557417 0.4343031401164828 0.0
0.5655739301232355 0.8163842100604964 0.0
0.43377170771404155 0.1760062913610982 0.0
0.1765332286950566 0.5639252035254388 0.0
0.431643142913861 0.4584853533285508 0.0
0.8181782607160464 0.5680122177092021 0.0
0.566644565683211 0.17984545607196495 0.0
0.429165345279588 0.8185763754140881 0.0
0.17918591975033013 0.43093808945048107 0.0
0.7700008010599866 0.6665051613430071 0.0
0.667049305441597 0.22388008117675065 0.0
0.33007756582253056 0.7750455620213718 0.0
0.22371515163637481 0.33129833974645395 0.0
0.9273731900685875 0.6826645636646903 0.0
0.6833709788181563 0.07048541974980517 0.0
0.31169545259692694 0.9250366561735749 0.0
0.07214921605922853 0.3105621280091362 0.0
0.5600687563686128 0.7403069496069373 0.0
0.6006329665709708 0.41800399225705087 0.0
0.3734068252469948 0.49878284701213077 0.0
0.7331081213351096 0.4563312131631546 0.0
0.4536845574463384 0.2615557319470067 0.0
0.2651785874285608 0.5423398721525307 0.0
0.5858123302925212 0.6136643327952525 0.0
0.415790205280297 0.3872966562483184 0.0
0.5701747375322581 0.5412969037275884 0.0
0.5460831736209873 0.44773168051573026 0.0
0.9330112999118676 0.49472540058973985 0.0
0.4963525505966757 0.06476764354735401 0.0
0.5005319707507343 0.9313479593171773 0.0
0.06448084924733155 0.5013082528098812 0.0
0.8445139833432388 0.4962739927185915 0.0
0.4952735784163865 0.15225485299235947 0.0
0.4979756127346804 0.8418021395856969 0.0
0.15250074506924577 0.502504791450237 0.0
0.8435344960179729 0.6963905192277088 0.0
0.6970325406885463 0.153921422979443 0.0
0.29969314611681197 0.8427065553891879 0.0
0.15487901152993513 0.3008042617844491 0.0
0.7687739413110807 0.8375003694841804 0.0
0.8353990817200193 0.2276208478862691 0.0
0.16257567959060115 0.77002033324489 0.0
0.22672963303367616 0.16251104084015072 0.0
0.7612716118802133 0.32523238837852453 0.0
0.23572708770220804 0.6735942680868601 0.0
0.3244651604694507 0.23678715536319497 0.0
0.6383715316285667 0.2994617386705572 0.0
[...]
POINT_DATA 2209
SCALARS Psi double
LOOKUP_TABLE default
0.0
0.0
0.0
0.0
0.0
0.0
0.0
0.0
0.0
0.0
0.0
0.0
0.0
0.0
0.0
0.0
0.0
0.0
0.0
0.0
0.0
0.0
0.0
0.0
0.0
0.0
0.0
0.0
0.0
0.0
0.0
0.0
0.0
0.0
0.0
0.0
0.0
0.0
0.0
0.0
0.0
0.0
0.0
0.0
0.0
0.0
0.0
0.0
0.0
0.0
0.0
0.0
0.0
0.0
0.0
0.0
0.0
0.0
0.0
0.0
0.0
0.0
0.0
0.0
0.0
0.0
0.0
0.0
0.0
0.0
0.0
0.0
0.0
0.0
0.0
0.0
0.0
0.0
0.0
0.0
0.0
0.0
0.0
0.0
0.0
0.0
0.0
0.0
0.0
0.0
0.0
0.0
0.0
0.0
0.0
0.0
0.0
0.0
0.0
0.0
0.0
0.0
0.0
0.0
0.0
0.0
0.0
0.0
0.0
0.0
0.0
0.0
0.0
0.0
0.0
0.0
0.0
0.0
0.0
0.0
0.0
0.0
0.0
0.0
0.0
0.0
0.0
0.0
0.0
0.0
0.0
0.0
0.0
0.0
0.0
0.0
0.0
0.0
0.0
0.0
0.0
0.0
0.0
0.0
0.0
0.0
0.0
0.0
0.0
0.0
0.0
0.0
0.0
0.0
0.0
0.0
0.0
0.0
0.0
0.0
-0.025154353533642298
-0.047563921111227245
-0.0074428849175255905
-0.03701228217110526
-0.007039603720434555
-0.015127967792946785
-0.006249259104038454
-0.060772661170407964
-0.012503826781392148
-0.052205407357953294
-0.0016137461481949512
-0.03439959126141718
-0.0015330544466165567
-0.030150247692180596
-0.013974323192572054
-0.03874481923843173
-0.015836577070955885
-0.019200983716513603
-0.0030630157748919497
-0.05719494525316555
-0.004080345227111748
-0.06787032542617515
-0.004574679907099958
-0.013879502747751214
-0.0030168406278959195
-0.01716737207601576
-0.047815475013810955
-0.010992316120032097
-0.023895681744570848
-0.006644350876756443
-0.0020291402218790013
-0.06106979343258812
-0.00406524900852983
-0.0195049024251876
-0.0011001251406333457
-0.04845902558202328
-0.0012325455735474238
-0.06239778441901086
-0.014055852650365432
-0.0016140713150652147
-0.0013060494064368036
-0.028316754405198683
-0.0071109828341854
-0.05145529845276267
-0.009633676605630003
-0.035342002026327105
-0.037862379551930864
-0.0002943423358603894
-0.027647554959387765
-0.0002821389227671869
-0.009579923951879028
-0.021039938909606645
-0.0062633687956129116
-0.003286684199483853
-0.0016311466792431402
-0.06138228401428374
-0.005095600926030132
-0.04597263187936431
-0.003716885550458471
-0.04227437266527169
-0.003742602942630766
-0.06352865762269176
-0.004484889656341692
-0.026415959340005322
-0.0036721624837835064
-0.023801384840327698
-0.017328467164076503
-0.027860287258790337
-0.06070271522792208
-0.011675607579381521
-0.04891233075477756
-0.03459242938615028
-0.010756488958179215
-0.02322099671478029
-0.0004810570522127208
-0.039569708769914204
-0.00047936418914144353
-0.051167207645968625
-0.014580301729698573
-0.0005064444834325313
-0.00045256981119035534
-0.021953158690912602
-0.04185966848764195
-0.010360073684834839
-0.016723600022396447
-0.005439703028933389
-0.0011188712641575392
-0.05124590918571649
-0.0016213402722451843
-0.05457304546098022
-0.005189536014851217
-0.0013242608861554815
-0.0008861941775288501
-0.008040997398311791
-0.06646759144232599
-0.004170603828232989
-0.012144018063510916
-0.020099461379684654
-0.015808907966343204
-0.004416122235043013
-0.06146070406985039
-0.007225333198919613
-0.034521641327964446
-0.005327048899170597
-0.049464928791705436
-0.0061848052604471055
-0.007246438964089046
-0.0007125311956565565
-0.04640516082324999
-0.000915103049961377
-0.0578182331169416
-0.017124866762852783
-0.02148186812170229
-0.014843526912023081
-0.008024050567573937
-0.01847289557691589
-0.038321150908429975
-0.01461323215018662
-0.02918668872130141
-0.02019605562167539
-0.002050080033409211
-0.000788874155819719
-0.04822866200467807
-0.001844941136008938
-0.008741671574793393
-0.003424173588263187
-0.06527149610573058
-0.007688790040634167
-0.026448403409837014
-0.0026561071132472714
-0.05290363168019561
-0.0031399605460394474
-0.06282572715791625
-0.002269283726341479
-0.02505584609767563
-0.00197893882964268
-0.006939803688213881
-0.02654547405971986
-0.005460649565293942
-0.009094545175876507
-0.04275166318951909
-0.009904047804476972
-0.05116787331608398
-0.001398899205374986
-0.003289881071150367
-0.0007929484249764698
-0.0313248480794441
-0.048672971581212886
-0.01729943804758137
-2.5709974181881675e-05
-0.025154779154958118
-2.7843942157126676e-05
-0.03113670070664987
-0.0023340132655249447
-0.0006186154113299203
-0.04508593554918448
-0.0011818737687012365
-0.010665701539996134
-0.0004011281719621713
-0.039458245724943546
-0.0004298528841884008
-0.04529208906703956
-0.005693511792106385
-0.000458948217570822
-0.000376143013671281
-0.03914076391897946
-0.0019154631337165728
-0.04433301397867602
-0.0019683723443510073
-0.06714033835189284
-0.0033513741984661023
-0.016328080569473123
-0.0025434790073915942
-0.03842297298779621
-0.02411957070322455
-0.013797025280053483
-0.02092178375198574
-0.010203857688156657
-0.051894620642819175
-0.013430817234427378
-0.031545736525533406
-0.00742348868149731
-0.01211412525277795
-0.01806306369009243
-0.000138580215969007
-0.030740166280909482
-0.00013127581922845887
-0.0403425655923391
-0.01060601252152353
-0.00018200272080826926
-0.0001650182236165425
-0.043404526636056665
-0.012836597952328355
-0.009369415063134094
-0.026345446780086393
-0.05511741184046851
-0.01141974040331125
-0.0026782409295453514
-0.061221946441144114
-0.0042842904553371895
-0.05180242589514619
-0.005157945891657606
-0.03668873580215898
-0.0048240994979947835
-0.05977182176412839
-0.024378155385901636
-0.005230353013728155
-0.05577105606103857
-0.007065463503229746
-0.04622772739196541
-0.004370653786004005
-0.000626040933670352
-0.0004681046269096139
-0.04203068619635725
-0.0006952998818825633
-0.03412071985070472
-0.0006737775292985903
-0.007913996483086435
-0.004782058521067596
-0.016298211813274503
-0.040360727105770454
-0.053649562956554826
-0.002663463198545084
-0.036241005650904205
-0.0025230375921669462
-0.009593895615685681
-0.030194136051004142
-0.007827465296904305
-0.0033904027760535325
-0.06491993512467989
-0.0020200535056710623
-0.00820302686774003
-0.0661179689003968
-0.04090802232358304
-0.06560521108902306
-0.024274339816171154
-0.03374129200978524
-0.005423075545352123
-0.02112361578796048
-0.003969182307642003
-0.01639485972930417
-0.011168996361783059
-0.01258159322704082
-0.0009998959550510365
-0.00048797055088587463
-0.042026058363771907
-0.0015726636923924868
-0.059129197567947205
-0.02283926612887245
-0.001295019572518845
-0.0011588400591046675
-0.00483071682293205
-0.0019784631662621587
-0.06262277212330818
-0.004879455254064904
-0.011239869952924223
-0.006212399894399991
-0.016914248404557807
-0.020423967417389048
-0.02578329348476586
-0.015954633147230234
-0.0018843036712747935
-0.055191470491303754
-0.0023756488617494133
-0.0037539093898224653
-0.0002296293283093041
-0.030591203606331576
-0.00022661593019569063
-0.0018571001854705068
-0.00026635863766314306
-0.03520782083607301
-0.00045641036390790303
-0.014049015605182794
-0.05082197780906317
-0.015352033351496068
-0.019970783825405278
-0.025922899603820784
-0.05519640031790022
-0.03551586272348153
-0.0011386489446541211
-0.04234279725694407
-0.0011580413936198406
-0.04413140930508269
-0.00574682718502336
-0.042412865490409506
-0.00590943426795131
-0.048441249201628525
-0.0005472902483756652
-0.02457332885315184
-0.0005106591024962376
-0.027038653155464158
-0.011675331180466339
-0.055000996192937336
-0.03008615000501561
-0.017630016810003958
-0.020426066877975785
-0.06290577758951951
-0.014155450630524398
-0.01709598619283301
-0.02764032777374916
-0.01755264182322133
-0.018293186629699993
-0.008187705713108624
-0.009818462187676359
-0.015838976326784913
-0.03659740054677956
-0.04346248926836985
-0.007923618874800673
-0.00014280368311323687
-0.030919937084704273
-0.00014809553002946094
-0.03815519617361257
-0.004914508950511026
-0.00021984867933928472
-0.00018514168244479557
-0.018929629740626265
-0.022067677690425974
-0.028448797394299313
-0.006297287272401036
-0.009455346058269937
-0.010735704111591474
-0.003512363682676109
-0.06326743220207746
-0.006683106633442332
-0.06514003032092432
-0.010642145464743194
-0.0027368834517288694
-0.0019097486350516005
-0.03502407156496777
-0.0014311533342726626
-0.0004251486382836685
-0.0002588646040945623
-0.0015806094178953255
-0.0003968663478184986
-0.033737070086333164
-0.0006440094838003708
-0.006383050891925127
-0.0030053459796482657
-0.06637918159685677
-0.008231483034228939
-0.013445500634334296
-0.005604868809236414
-0.06758408466068647
-0.003210179615144607
-0.011389817091766018
-0.007051079157603563
-0.048420260240953326
-0.008525295361029524
-0.057865751336285444
-0.014165441916910564
-0.0009835138099137503
-0.000839871138718303
-0.04459765109330364
-0.022494996994618075
-0.0007716848445144711
-0.043987660395801376
-0.0008095625994040002
-0.01255409438765751
-0.002112684981378344
-0.05807462740742831
-0.002929117593171817
-0.014190883022867275
-3.786517651071739e-05
-0.023564654173666287
-3.59072187303458e-05
-0.006618571721935792
-0.027320182432641536
-3.0667592709639306e-05
-3.432563817589728e-05
-0.05685799097130399
-0.02870211907799632
-0.0038997485583963805
-0.053004266218787933
-0.004696772475303264
-0.060693992036748405
-0.00913069160722924
-0.0016686316008404471
-0.0012304824843107172
-0.04477111515565219
-0.009471538742691762
-0.03588465249718574
-0.008904012180688738
-0.00585740435095554
-0.010315273360875078
-0.017057283870441857
-0.0122754728401556
-0.010639836755232328
-0.004830807595165474
-0.011495963669773023
-0.005067363233795321
-0.0013394749512542657
-0.05581313501848016
-0.002359926931387594
-0.06339430259308132
-0.022098245338510715
-0.026637085079099378
-0.032752244346530235
-0.033561465675782554
-0.008928566178118885
-0.011010517895229817
-0.017012814083997203
-0.003602807994433879
-0.06007170686245969
-0.005274287346406894
-0.007379982249097114
-0.005087046356589366
-0.021084853155909588
-0.06188222731191189
-0.020150878927462038
-0.03900746601561224
-0.004308438094415892
-0.04687569602254132
-0.004682984522653609
-0.0008885375578455987
-0.00028264881888214046
-0.03325996764699903
-0.0006037472369932354
-0.034247598394689036
-0.034890425825507256
-0.046933038305204136
-0.019353516625562138
-0.014937609927801639
-0.009268422697389225
-0.022429066076095783
-0.0434576330850518
-0.051740476242519325
-0.06528078276567023
-0.002832112578285775
-0.02187134436200827
-0.002319134054122708
-0.059072754159776114
-0.003473951162387614
-0.03220646341386608
-0.003121194131622271
-0.03092030481702121
-0.0020405755202529525
-0.0490358922651667
-0.002222782876953357
-0.013608472580587512
-0.0010415504634521356
-0.04980246301730633
-0.0012797430898603458
-0.01405478375640149
-0.00690243528019356
-0.015555683824441103
-0.04938713964364888
-0.007430708686624247
-0.043098093494685845
-0.007954729183178471
-0.020044180596959567
-0.011944890189799336
-0.0020810930312884037
-0.0001966499865670183
-0.02761793490901578
-0.0002103060865089396
-0.01677239819913112
-0.01608588662855871
-0.03668411208153826
-0.0077217495126660545
-0.0010992360217004387
-0.0510160315671041
-0.0014339615888297925
-0.006485774277360786
-0.03275963534264652
-0.005691647020208497
-0.0294421499765763
-0.0003412883893830466
-0.03403712256434924
-0.00033171332085219337
-0.03296411880025864
-0.0015181914941223172
-0.0003126809402625191
-0.00020991810140069377
-0.0006351794328127554
-0.0002484306424992397
-0.031028109896947053
-0.0006318767587471499
-0.003240833422946511
-0.0009852208608638333
-0.051566766473421
-0.002041280421927407
-0.010675222360724951
4.1026797507379223e-07
-0.014019880273523844
5.01396701744755e-07
-0.04024189421378841
-0.012402427597118772
-0.007704476501753712
-0.021502247460812886
-0.052004285804353755
-0.0009141773605397435
-0.02793139437108221
-0.0008517714792184753
-0.031001378250806427
-0.002035690255058991
-0.00019468235030339442
-0.00014744735107099062
-0.00473998435046038
-0.009584507278645392
-0.012588320679091639
-0.053799877162982415
-0.022017691952689537
-0.05547708394808526
-0.004714436954444781
-0.0015870459611487537
-0.0009907883010437414
-0.06369433367169092
-0.06413026462882408
-0.0629619157954822
-0.020443048324454118
-0.0018100652517070133
-0.0015436028005308621
-0.05328797586493449
-0.000867912176931102
-0.007448239561739151
-0.0006802949633607197
-0.05998121752890938
-0.04443511912088449
-0.012021120351038235
-0.0005801937788935547
-0.043146999130986255
-0.0006451621114533395
-0.022750137480124815
-0.0020132261428004792
-0.0009268187189562391
-0.0522894437867131
-0.002651665220613778
-0.03253983708718783
-0.0009046634032472473
-0.0004830108223332074
-0.00024953023962682736
-0.039175977752025366
-0.030900718987877905
-0.037117021186433466
-0.01916345593684671
-0.05210706458029544
-0.004380948491746236
-0.06542087525868397
-0.0023068564899638723
-0.0075473602826398875
-0.03178763455673145
-0.018967774400230925
-0.009441981471662479
-0.01455362675997365
-0.06336027067261119
-0.008223328576783526
-0.011261086521230647
-0.008371992145959746
-8.184400350354108e-05
-8.312629275026739e-05
-7.092138195848721e-05
-0.029348711467286896
-0.0037463918150401803
-0.026916361452146854
-8.064902031413815e-05
-0.0112119685197961
-0.03084822931242221
-0.00916893920587836
-0.027376933075958187
-0.026294599457889027
-0.008823413887864895
-0.024969581278140238
-0.006457462092692134
-0.04330770919381796
-0.025364339592818756
-0.05687056537462141
-0.0019710153949145416
-0.03146877644421256
-0.0018196306525509714
-0.05425187827665159
-0.04531830402682517
-0.0025881924851561587
-0.04789469515646966
-0.0019193082706593118
-0.042093612082006
-0.03903014859144147
-0.002599057964642022
-0.0018831235930247823
-0.005737691743636582
-0.016590948523269554
-0.0037972716489494325
-0.05750613925088071
-0.0021703591165249413
-0.05687091295714603
-0.0011630039162441074
-0.004249102942802314
-0.02704537289764896
-8.113525044834903e-05
-0.023520754018780735
-7.59679739344859e-05
-0.0023573505490024544
-0.0001022936799758194
-0.023941440721084336
-0.00010858200718071842
-0.010520250267257336
-0.01082670665275035
-0.039329024870677035
-0.003995096512668413
-0.00010029228043436674
-0.025606483598901705
-0.00010540998576428614
-0.029777827859066415
-0.0023819507376260695
-0.00014185804321747755
-0.00011362383991294206
-0.027101259912270907
-0.02956261080512802
-0.001369279858573913
-0.04665654480311392
-0.0014515906050237338
-0.006937147518512441
-0.002540904490952607
-0.06409899728626342
-0.0055920005775142905
-0.039299204225550576
-0.003161297358940711
-0.04652404908906642
-0.0033423443009907607
-0.005790594741570728
-0.02495967850147609
-0.0047123989819961515
-0.02273999927023619
-0.06662045233823276
-0.06758551611628794
-0.010750422856613642
-0.025029805948739294
-0.007635233039677873
-0.0394077027193606
-0.016831262770729362
-0.00017199841543600274
-0.0001557079783915173
-0.021159483005183298
-0.002649558907988009
-0.05552444163088766
-0.003308361364978928
-0.05313513878348934
-0.0036859344159220226
-0.03711022809586279
-0.0034980315425261854
-0.014476691263097873
-0.03987234445046683
-0.028585629432907204
-0.014694608704910924
-0.01531004622259207
-0.058486246559202766
-0.00033126287996970607
-8.679685294499251e-05
-0.020076272078624172
-0.0001608097752238136
-0.028094155010570315
-0.06633862380792772
-0.013216497014298483
-0.022622677211967417
-0.015281173992996378
-0.00493836091140865
-2.9847072903601694e-06
-0.008894765671534473
-0.019956618381000445
-0.01703088446159985
-3.405550622582774e-06
-3.999521312429749e-06
-3.578209994558227e-06
-0.03426057712813597
-0.0038258464769804945
-0.003989940413461568
-0.0202235951473665
-0.015361649212354292
-0.0031528391918318258
-0.002848828129714036
-0.054678878008642774
-0.02289090293939417
-0.00821130343863478
-0.031214216015046245
-0.00692261155115363
-0.01771270977518767
-0.059001541596573795
-0.02433938148328614
-0.0019378152671938862
-0.05184647723564927
-0.0022311115324429266
-0.047622939797665784
-0.006303217148801366
-0.052363386313384094
-0.008098340105648819
-0.052140218723973564
-0.024268482414497517
-0.004159624178646283
-0.05573096285546419
-0.00539537596427874
-0.04615513421771964
-0.014642744590916659
-0.00032371899958296254
-0.00029209517808641684
-0.06523204249117578
-0.017258582379269718
-0.002285008268893979
-0.0018356836098235272
-0.03282110734405492
-0.014230875207597925
-0.03371130125922001
-0.062336198011579004
-0.011337530164302693
-0.00738125298395683
-0.013375032958356143
-0.0373043045191312
-0.018171636311002867
-0.009239736336238799
-0.005687648131753501
-0.01860688929689979
-0.004941635649954975
-0.029737570068998343
-0.004240453167759599
-0.009515265180259061
-0.00272608245086299
-0.0048993445710964175
-0.0473918330546592
-0.06322948862912597
-0.02672569371734524
-0.0030550255866882074
-0.0026237968698379008
-0.015362966851275096
-0.0003552625897252935
-0.038372094694327764
-0.0003614815505810614
-0.0468309259034453
-0.008026179178253068
-0.0004267789547679623
-0.0003605675230920926
-0.022271102709889166
-0.011702270688452192
-0.032679995874811366
-0.008457501375799132
-0.0037604616931259357
-0.009322130219311837
-0.02791186533578496
-0.0007396833175234733
-0.0002653814157943685
-0.00015373242113398563
-0.04561183292669387
-0.01571711811187497
-0.03273432415290543
-0.00017172273279789015
-0.0001709599203859402
-0.046084591112700975
-0.0044555955463444425
-0.04187643319618871
-0.004494772137290532
-0.027055121214208323
-0.01466190079663763
-0.0028391459055599286
-0.06020138531556546
-0.004113587515762743
-0.06605994382829952
-0.0033174120902955025
-0.010057566480267292
-0.0021449419969010912
-0.05849259683592947
-0.022657149690900356
-0.06723681461729854
-0.05403795735028543
-0.0007388837190889216
-0.020239815555657386
-0.0006659533823132314
-0.01036999002702086
-0.003937075463848672
-0.04965145611942671
-0.008926128975809819
-4.126068291877097e-05
-0.024451647558911428
-4.01678506002696e-05
-0.024201606791520083
-0.003455606242970133
-3.193769937060277e-05
-2.813654710025867e-05
-0.04650725758851203
-0.008589857522569478
-0.004741534419888924
-0.01443962185843739
-0.04691605671274984
-0.0011196022591495774
-0.035121789184427314
-0.0010777846770767849
-0.013102596301482632
-0.000780570748781143
-0.0013481669714620235
-0.028614800071670873
-0.024398607618876245
-0.006211148468140883
-0.037169958671925324
-0.005867413014894256
-0.0005953617075631466
-0.00010659475985145833
-0.02332899656800303
-0.0001730321349957689
-0.04293161793615519
-0.0621667099417784
-0.06248614498088315
-0.009311841067405157
-0.0018866683281155345
-0.05838906665961435
-0.002828484232142921
-0.05341465125065694
-0.0010760236989290901
-0.005587433835945205
-0.0007719687224233172
-0.028696483406931313
-0.00023237596837684767
-0.031289750479205784
-0.00022332530453175799
-0.025204694532354868
-0.032180159756721165
-0.0006144379034999077
-0.03847716605574908
-0.0006094209123292044
-0.06294747540825209
-0.013393269366751613
-0.0034647647007498626
-0.00569180909011216
-0.043873083510650286
-0.0004916430575978317
-0.028443778946022104
-0.0004644049928075938
-0.006005923366492484
-0.00370099500755435
-0.014264596529520725
-0.014007760501583455
-0.008494121621031817
-0.0006386099707639798
-0.04625854718502405
-0.0008867676384406701
-0.018633962987757453
-0.0005354624517752163
-7.814152821007286e-05
-5.5654740398553034e-05
-0.004634853260744317
-0.00847573915632872
-0.02411925248869746
-0.008849329037026142
-0.015241776642580637
-0.03761014280045019
-0.015228095964619026
-0.02011487115970308
-0.005124145062189805
-0.007662706944365828
-0.0007771491308969682
-8.512322941738889e-05
-0.021490686276173038
-0.00010905258076908447
-0.01013822446480776
-0.010325374262019195
-0.00529085435376616
-0.014052566752811618
-0.04465986234417032
-0.021319575139741958
-0.0003287222855978059
-0.0003080575556076869
-0.012372837715087159
-0.0669882785027579
-0.004519526117541969
-0.0016882024178388373
-0.05991145069743531
-0.003784162630779576
-0.033002753969121
-0.029132165145734773
-0.013904712305840368
-0.05895419537351092
-0.008224297081205466
-0.03892188307270821
-0.00812017216273847
-0.005313018675557138
-0.052627843084692795
-0.006620839177811989
-0.029320881535389247
-0.01618643656269918
-0.037294434863352245
-0.0003930157330720473
-0.00013964830113051424
-0.024049113238773547