# vtk DataFile Version 1.0
2D Simulation C++
ASCII
DATASET UNSTRUCTURED_GRID
FIELD FieldData 1
NODES 1 2 int
2209 4256

POINTS 2209 double
0.0 0.0 0.0
0.0 1.0 0.0
1.0 1.0 0.0
1.0 0.0 0.0
0.0 0.02500000037252903 0.0
0.0 0.05000000074505806 0.0
0.0 0.07500000298023224 0.0
0.0 0.10000000149011612 0.0
0.0 0.125 0.0
0.0 0.15000000596046448 0.0
0.0 0.17499999701976776 0.0
0.0 0.20000000298023224 0.0
0.0 0.22499999403953552 0.0
0.0 0.25 0.0
0.0 0.2750000059604645 0.0
0.0 0.30000001192092896 0.0
0.0 0.32499998807907104 0.0
0.0 0.3499999940395355 0.0
0.0 0.375 0.0
0.0 0.4000000059604645 0.0
0.0 0.42500001192092896 0.0
0.0 0.44999998807907104 0.0
0.0 0.4749999940395355 0.0
0.0 0.5 0.0
0.0 0.5249999761581421 0.0
0.0 0.550000011920929 0.0
0.0 0.574999988079071 0.0
0.0 0.6000000238418579 0.0
0.0 0.625 0.0
0.0 0.6499999761581421 0.0
0.0 0.675000011920929 0.0
0.0 0.699999988079071 0.0
0.0 0.7250000238418579 0.0
0.0 0.75 0.0
0.0 0.7749999761581421 0.0
0.0 0.800000011920929 0.0
0.0 0.824999988079071 0.0
0.0 0.8500000238418579 0.0
0.0 0.875 0.0
0.0 0.8999999761581421 0.0
0.0 0.925000011920929 0.0
0.0 0.949999988079071 0.0
0.0 0.9750000238418579 0.0
0.02500000037252903 1.0 0.0
0.05000000074505806 1.0 0.0
0.07500000298023224 1.0 0.0
0.10000000149011612 1.0 0.0
0.125 1.0 0.0
0.15000000596046448 1.0 0.0
0.17499999701976776 1.0 0.0
0.20000000298023224 1.0 0.0
0.22499999403953552 1.0 0.0
0.25 1.0 0.0
0.2750000059604645 1.0 0.0
0.30000001192092896 1.0 0.0
0.32499998807907104 1.0 0.0
0.3499999940395355 1.0 0.0
0.375 1.0 0.0
0.4000000059604645 1.0 0.0
0.42500001192092896 1.0 0.0
0.44999998807907104 1.0 0.0
0.4749999940395355 1.0 0.0
0.5 1.0 0.0
0.5249999761581421 1.0 0.0
0.550000011920929 1.0 0.0
0.574999988079071 1.0 0.0
0.6000000238418579 1.0 0.0
0.625 1.0 0.0
0.6499999761581421 1.0 0.0
0.675000011920929 1.0 0.0
0.699999988079071 1.0 0.0
0.7250000238418579 1.0 0.0
0.75 1.0 0.0
0.7749999761581421 1.0 0.0
0.800000011920929 1.0 0.0
0.824999988079071 1.0 0.0
0.8500000238418579 1.0 0.0
0.875 1.0 0.0
0.8999999761581421 1.0 0.0
0.925000011920929 1.0 0.0
0.949999988079071 1.0 0.0
0.9750000238418579 1.0 0.0
1.0 0.9750000238418579 0.0
1.0 0.949999988079071 0.0
1.0 0.925000011920929 0.0
1.0 0.8999999761581421 0.0
1.0 0.875 0.0
1.0 0.8500000238418579 0.0
1.0 0.824999988079071 0.0
1.0 0.800000011920929 0.0
1.0 0.7749999761581421 0.0
1.0 0.75 0.0
1.0 0.7250000238418579 0.0
1.0 0.699999988079071 0.0
1.0 0.675000011920929 0.0
1.0 0.6499999761581421 0.0
1.0 0.625 0.0
1.0 0.6000000238418579 0.0
1.0 0.574999988079071 0.0
1.0 0.550000011920929 0.0
1.0 0.5249999761581421 0.0
1.0 0.5 0.0
1.0 0.4749999940395355 0.0
1.0 0.44999998807907104 0.0
1.0 0.42500001192092896 0.0
1.0 0.4000000059604645 0.0
1.0 0.375 0.0
1.0 0.3499999940395355 0.0
1.0 0.32499998807907104 0.0
1.0 0.30000001192092896 0.0
1.0 0.2750000059604645 0.0
1.0 0.25 0.0
1.0 0.22499999403953552 0.0
1.0 0.20000000298023224 0.0
1.0 0.17499999701976776 0.0
1.0 0.15000000596046448 0.0
1.0 0.125 0.0
1.0 0.10000000149011612 0.0
1.0 0.07500000298023224 0.0
1.0 0.05000000074505806 0.0
1.0 0.02500000037252903 0.0
0.9750000238418579 0.0 0.0
0.949999988079071 0.0 0.0
0.925000011920929 0.0 0.0
0.8999999761581421 0.0 0.0
0.875 0.0 0.0
0.8500000238418579 0.0 0.0
0.824999988079071 0.0 0.0
0.800000011920929 0.0 0.0
0.7749999761581421 0.0 0.0
0.75 0.0 0.0
0.7250000238418579 0.0 0.0
0.699999988079071 0.0 0.0
0.675000011920929 0.0 0.0
0.6499999761581421 0.0 0.0
0.625 0.0 0.0
0.6000000238418579 0.0 0.0
0.574999988079071 0.0 0.0
0.550000011920929 0.0 0.0
0.5249999761581421 0.0 0.0
0.5 0.0 0.0
0.4749999940395355 0.0 0.0
0.44999998807907104 0.0 0.0
0.42500001192092896 0.0 0.0
0.4000000059604645 0.0 0.0
0.375 0.0 0.0
0.3499999940395355 0.0 0.0
0.32499998807907104 0.0 0.0
0.30000001192092896 0.0 0.0
0.2750000059604645 0.0 0.0
0.25 0.0 0.0
0.22499999403953552 0.0 0.0
0.20000000298023224 0.0 0.0
0.17499999701976776 0.0 0.0
0.15000000596046448 0.0 0.0
0.125 0.0 0.0
0.10000000149011612 0.0 0.0
0.07500000298023224 0.0 0.0
0.05000000074505806 0.0 0.0
0.02500000037252903 0.0 0.0
0.5059483171799264 0.5039398670336049 0.0
0.711913303351063 0.7035484936515061 0.0
0.7035690815475121 0.2956907027500653 0.0
0.29745192278395244 0.7075696007852863 0.0
0.295409653254054 0.29745897886674555 0.0
0.7768419628623563 0.506478303143949 0.0
0.5026403376523779 0.22268859677273464 0.0
0.4927974841919218 0.779192116423622 0.0
0.22354336681910614 0.49759040688299905 0.0
0.8296141223911363 0.8218812379138837 0.0
0.8207414626379617 0.17173350787983074 0.0
0.18088962724509067 0.8303699359752522 0.0
0.1716216315458365 0.1810146902738511 0.0
0.6437698186853457 0.5668527705457433 0.0
0.5647291015620339 0.36793622909364687 0.0
0.4424303048134483 0.6361952756237599 0.0
0.3633095736905198 0.4290488958573811 0.0
0.8459663582879695 0.6443982176967068 0.0
0.6451012715270213 0.15663803942357815 0.0
0.35087276860125116 0.8429372568120764 0.0
0.1561177587607775 0.3564274729559552 0.0
0.6493890677451535 0.8424578509164161 0.0
0.842762408555623 0.35931760190135675 0.0
0.1589188549342519 0.6443128393916526 0.0
0.3592836856362945 0.1581601988275281 0.0
0.6744520516657193 0.4495160864046186 0.0
0.5844958254008605 0.6776995830822771 0.0
0.4475491836720898 0.3212242484061919 0.0
0.3293199462544418 0.5575657935121296 0.0
0.8833762526293499 0.5323361599943117 0.0
0.5319438539165612 0.11392532307662415 0.0
0.46763108876352005 0.8868140864393527 0.0
0.11379039208760929 0.4702561251181779 0.0
0.8985239897641739 0.7428840733308134 0.0
0.742762348669761 0.10328012476289099 0.0
0.2591538613481433 0.8979301296551216 0.0
0.10409834249464986 0.25935370956380355 0.0
0.7459013899209875 0.8840086087638871 0.0
0.11967382960350917 0.7452051186673321 0.0
0.882456219914613 0.2569249532387137 0.0
0.2569432508925334 0.1195897131602081 0.0
0.742176376991334 0.6050009265731685 0.0
0.6095568084900576 0.25203085171569956 0.0
0.3956440746173238 0.7491807647659682 0.0
0.2552788889376408 0.395895629997506 0.0
0.5240659745871012 0.5932130826462736 0.0
0.8994736569280147 0.8866888051149283 0.0
0.8853059473234708 0.10126637057723946 0.0
0.11668105702818833 0.900489293775832 0.0
0.10156820093891672 0.11688335229963956 0.0
0.7625126447124867 0.3935041682001408 0.0
0.23909905398027137 0.6118065099590062 0.0
0.3918095112637964 0.23726285765198535 0.0
0.8984910776715653 0.43808840294334 0.0
0.4375410395908072 0.10313228707736688 0.0
0.5657182266361602 0.8957566182517137 0.0
0.10344874157788111 0.5648696647539307 0.0
0.7892153127318136 0.7435554688661036 0.0
0.7431972479260235 0.21246865685630345 0.0
0.25794238376462264 0.7903556511801557 0.0
0.21280462033199982 0.25798730514069645 0.0
0.7216086415321485 0.8015306439436313 0.0
0.7953438799896421 0.2843372605155942 0.0
0.20640296513873538 0.7189422267282245 0.0
0.28828176297156216 0.20241568545884808 0.0
0.5946740103251456 0.4959342825793649 0.0
0.4918320542160622 0.4130325474709718 0.0
0.42619706686508096 0.5478993077908755 0.0
0.6328845616620843 0.7593608950078666 0.0
0.6526148201242781 0.35560520110357047 0.0
0.496440312272881 0.6940011339563967 0.0
0.3545542927671764 0.6442750140601313 0.0
0.3505648365287924 0.3487632245659437 0.0
0.9169718948486655 0.8168585475568192 0.0
0.8162690964143273 0.08470735465067017 0.0
0.1856091243557165 0.9177003967082223 0.0
0.08440561897755137 0.18564916874898763 0.0
0.8285542777400698 0.9110934212551122 0.0
0.09185976081675234 0.829441317866162 0.0
0.9103323087618415 0.17296390416173657 0.0
0.17258671182102656 0.0918278715218222 0.0
0.6991999434323543 0.5189545485759921 0.0
0.6497675520557057 0.6499775210891585 0.0
0.5137422562163451 0.30447517036031146 0.0
0.3007452890622299 0.4854317890658357 0.0
0.9186345868918365 0.6086470014760742 0.0
0.61419325864771 0.08638384470661889 0.0
0.39661938853552914 0.9214061563949444 0.0
0.08385768391516145 0.38785028681153855 0.0
0.6650634245462649 0.9199659264517025 0.0
0.08219531749158121 0.6635140436221093 0.0
0.9195746219686729 0.33910965690411077 0.0
0.33906580899527955 0.08229718459831213 0.0
0.8222372945926882 0.43765865592664777 0.0
0.5677013912611093 0.8177773768114275 0.0
0.4361600397061235 0.17795983776861948 0.0
0.17897995682441387 0.5659511893779576 0.0
0.4346737393519623 0.4594916036984274 0.0
0.8199919428117889 0.5707608783398816 0.0
0.5690899817156317 0.18204491023505714 0.0
0.43120159899720556 0.8199091029349762 0.0
0.1819542111367537 0.43273818251818635 0.0
0.7720173263962846 0.6686390997103563 0.0
0.6689194177899663 0.22673778047630833 0.0
0.33218474066847575 0.7767601691408622 0.0
0.22686438886474003 0.33273145399739207 0.0
0.929602040719709 0.6852694062880018 0.0
0.6859102597346973 0.07317827908663078 0.0
0.31340775211935795 0.9277784001913402 0.0
0.07489914687558492 0.31273602552919544 0.0
0.5617391663674842 0.741787869813901 0.0
0.603069582979191 0.4202749707832471 0.0
0.3757242046282195 0.4999429288433988 0.0
0.7349458164616159 0.4600659469227537 0.0
0.45649770716403987 0.26358167579779107 0.0
0.2676311141834073 0.5437990292062705 0.0
0.5879528062989212 0.6153946834649766 0.0
0.41897936158786475 0.388084593374063 0.0
0.5725335699180018 0.5431312621487279 0.0
0.5490346589574263 0.4495573816021286 0.0
0.934646309132563 0.49781459895313884 0.0
0.4985181496818066 0.06729071489043462 0.0
0.5027884382557207 0.9330459157166237 0.0
0.06694143285353589 0.5034447767250207 0.0
0.845818104683623 0.4996117185116564 0.0
0.497818842141442 0.15471273487299997 0.0
0.49957011448468974 0.8431412199709837 0.0
0.1547732589526378 0.5039484368185663 0.0
0.8451157835155976 0.6985803825050322 0.0
0.698662101414644 0.15663898954999453 0.0
0.3017590111574589 0.8448237617698887 0.0
0.15705822079211731 0.30249167665356047 0.0
0.7721402164354852 0.8387878233649422 0.0
0.8359799331756735 0.22926034246653254 0.0
0.1657357637903278 0.7726987716596513 0.0
0.2286403683837542 0.1652816731511554 0.0
0.7629640913356376 0.3280634762870658 0.0
0.23847820299064917 0.675568839401845 0.0
0.3270486958412368 0.23855608604069856 0.0
0.6402343584848365 0.30228307472009597 0.0
[...]
POINT_DATA 2209
SCALARS Psi double
LOOKUP_TABLE default
0.0
0.0
0.0
0.0
0.0
0.0
0.0
0.0
0.0
0.0
0.0
0.0
0.0
0.0
0.0
0.0
0.0
0.0
0.0
0.0
0.0
0.0
0.0
0.0
0.0
0.0
0.0
0.0
0.0
0.0
0.0
0.0
0.0
0.0
0.0
0.0
0.0
0.0
0.0
0.0
0.0
0.0
0.0
0.0
0.0
0.0
0.0
0.0
0.0
0.0
0.0
0.0
0.0
0.0
0.0
0.0
0.0
0.0
0.0
0.0
0.0
0.0
0.0
0.0
0.0
0.0
0.0
0.0
0.0
0.0
0.0
0.0
0.0
0.0
0.0
0.0
0.0
0.0
0.0
0.0
0.0
0.0
0.0
0.0
0.0
0.0
0.0
0.0
0.0
0.0
0.0
0.0
0.0
0.0
0.0
0.0
0.0
0.0
0.0
0.0
0.0
0.0
0.0
0.0
0.0
0.0
0.0
0.0
0.0
0.0
0.0
0.0
0.0
0.0
0.0
0.0
0.0
0.0
0.0
0.0
0.0
0.0
0.0
0.0
0.0
0.0
0.0
0.0
0.0
0.0
0.0
0.0
0.0
0.0
0.0
0.0
0.0
0.0
0.0
0.0
0.0
0.0
0.0
0.0
0.0
0.0
0.0
0.0
0.0
0.0
0.0
0.0
0.0
0.0
0.0
0.0
0.0
0.0
0.0
0.0
-0.04379940643279791
-0.07893540890207514
-0.010537390292260067
-0.04913356438566171
-0.010127723190025605
-0.02650202199141959
-0.009061459993905212
-0.08280840812409643
-0.018060518528751544
-0.06538845244219559
-0.0015348217072561343
-0.037033093655230165
-0.0018004650077367654
-0.055745930743663845
-0.023004752858053132
-0.061726317930710296
-0.024992646098098138
-0.033465214753693115
-0.003886787993399328
-0.06547053934368167
-0.0055233090210496235
-0.08602684712034478
-0.005728867283542903
-0.017993986069933802
-0.004000133341548296
-0.029961380115309137
-0.07998447686477818
-0.017132126180417546
-0.03667246483966726
-0.010599123190240669
-0.002653163171566283
-0.06881597550523522
-0.005533585354347796
-0.02862338901802048
-0.001132060559414901
-0.050090982265703056
-0.0014986391329267856
-0.07168014625570385
-0.016293754765826687
-0.0015167637454242763
-0.001554809115792958
-0.05232570693434054
-0.010312276267987615
-0.06920858878541251
-0.014137929521881129
-0.06139175047733773
-0.040588651348739464
-0.0001845975741415591
-0.02788558693381808
-0.0002723648600246134
-0.014626221277819863
-0.02929652919255417
-0.009020133075341042
-0.004274568321892345
-0.0021261609011243897
-0.07003420951099287
-0.0067658004888122925
-0.06991925872375097
-0.004442226952335213
-0.04949941244790758
-0.004950181458160064
-0.08667451781569827
-0.005455098594949379
-0.032705130164713186
-0.004878895021334318
-0.0428994010209397
-0.028947617269517258
-0.04597723798491169
-0.09040753379952922
-0.018564577980886322
-0.07616008004302996
-0.05115954086154047
-0.01639909932005856
-0.028195561807503565
-0.0003889821005093996
-0.03959406546553514
-0.0005200030251106035
-0.05422816462857884
-0.015414552323180657
-0.00035597584548845173
-0.0004713836303914626
-0.040190530658378965
-0.07409241763287965
-0.016162907253404173
-0.025500200238691845
-0.008922381580650163
-0.0013808290796213697
-0.05382234206835966
-0.002154329986033627
-0.05966371111816194
-0.006429966398300793
-0.0013148901057594086
-0.001098389320696475
-0.012108793739506032
-0.08734362316905665
-0.005777259500299601
-0.016662997832965733
-0.03333700258877568
-0.028223771058995876
-0.006055863360545048
-0.07580749761749946
-0.010181213760373892
-0.06025141742578737
-0.007177557099905475
-0.06143558296251044
-0.008703335148845678
-0.011390902209966422
-0.0007934205829107908
-0.047090703976921874
-0.0011483770508933008
-0.08692747200504573
-0.029406066540263166
-0.03450581339523071
-0.02541650844757062
-0.01201298955068161
-0.02719106187898006
-0.06798782429996379
-0.02343288966266184
-0.05266794067029091
-0.03510537671988331
-0.0027375277214261814
-0.0010102964878507847
-0.05119747119271809
-0.0024871778066479482
-0.014130716084785338
-0.004665921988919939
-0.07995094382283349
-0.010575643721197238
-0.04328972402334767
-0.00316542936790548
-0.05901248477679074
-0.004099325909348393
-0.07785327942286936
-0.0023123582720090867
-0.02857975728905846
-0.002413107850104035
-0.009527186480396677
-0.035037907374220495
-0.007639312208321732
-0.01369949943275005
-0.05994862742005843
-0.014803162793885072
-0.055383561616782616
-0.001494405419162852
-0.00424492809894814
-0.0010153795580947018
-0.04914892744385833
-0.07152194529243795
-0.017483407457805352
-1.609017422185695e-05
-0.0245091137577789
-2.8844922914796677e-06
-0.05334567430947501
-0.0034202937560660848
-0.0007878441946818261
-0.04653831368052225
-0.0015573238339783736
-0.014633096542374532
-0.000370255621767441
-0.03888898224029431
-0.0004927628795536946
-0.046822963815466745
-0.006412494865325438
-0.000335668368903005
-0.0004179469850501003
-0.05466815551192383
-0.001996778053988263
-0.047792170769053656
-0.0024185546641724816
-0.08339530415658576
-0.0037946509219346897
-0.020186628667091065
-0.0032695951766505494
-0.06852687427541661
-0.044180424349249826
-0.02248824790775237
-0.03846445517278143
-0.015889430695765976
-0.0848953509871814
-0.02059193016528579
-0.058446669065235046
-0.010967014026290585
-0.017849453029081936
-0.01960075696905904
-8.105009366789025e-05
-0.03016858644094935
-0.00012440644946859182
-0.040516987805482865
-0.01098538928202587
-9.914182636433105e-05
-0.0001555855668628645
-0.07287840126437257
-0.020925525582671942
-0.014195942396002092
-0.038792208893515916
-0.07643493287755032
-0.019817813072176133
-0.0035031261811547787
-0.06984051756439753
-0.005851207993256306
-0.07981323002316122
-0.006569798346352975
-0.04543142124054631
-0.006604332100886944
-0.0887094302775916
-0.044324453459711755
-0.00718665474910026
-0.06937472046480254
-0.01003945856566865
-0.048629350726237155
-0.005086261925350853
-0.0005068226873365778
-0.0005421776125499806
-0.04871769574502996
-0.0005539440003936372
-0.03500194976151005
-0.0007156624230273052
-0.0115949925590554
-0.00665566274161255
-0.022230942843710758
-0.06687777005750262
-0.07289635626442109
-0.0028725683388115125
-0.04086879680275104
-0.0031587373879991168
-0.014482199705990958
-0.042066036808837505
-0.011530796518111548
-0.004144707432818945
-0.07679653773456746
-0.002614523830619732
-0.010632043882247467
-0.09026044679513927
-0.06101649983011458
-0.08954182009257987
-0.04101443102099076
-0.05578637313863143
-0.006989946402308464
-0.0272268596683441
-0.005356513130864325
-0.02764134982420161
-0.017604622980119777
-0.01940478328072907
-0.0010935112760560336
-0.0006109420607952051
-0.043943360904001826
-0.0020576419055466253
-0.06848985312612531
-0.024774572150683863
-0.001150612400212381
-0.0013246259240309712
-0.0070223209084826765
-0.0026039163762179075
-0.07198072339371855
-0.006611232785034667
-0.018134024941467833
-0.008967950573378672
-0.023957310909414546
-0.03466915729711377
-0.04574196425378946
-0.02666034838345968
-0.002241989178260541
-0.05970237088635361
-0.003110168597275905
-0.005465840021026473
-0.00023408926240501798
-0.02953562529728316
-0.0002695386698064573
-0.0028592018412259023
-0.0003115176256588512
-0.03462984138615658
-0.0005800370508453456
-0.022752922215196786
-0.08121473579270325
-0.025995369169283255
-0.03556088116436055
-0.04146711173728317
-0.08704659962980359
-0.04627578095734712
-0.0010689400473991788
-0.04395603265670347
-0.0013345844175678442
-0.07270888035585842
-0.007691025417474761
-0.05332395351529422
-0.00825698353077155
-0.05289872353500891
-0.000398799161991874
-0.025419224020780874
-0.0005329388849076806
-0.05022544793912292
-0.018196103394920598
-0.08197344895452154
-0.053071491607923
-0.0276628161924804
-0.03177051283341007
-0.08675027883752806
-0.023451238599345708
-0.02820636671620086
-0.050630994773936254
-0.03128833145381213
-0.0324913238881331
-0.012291083891278773
-0.015100225051949964
-0.023473290147642833
-0.06643827425601488
-0.07570648412749421
-0.009444307717240306
-0.0001101172004584202
-0.029659998842505718
-0.00015140288255576485
-0.03832522746659529
-0.005340080193640655
-0.00013088064455603855
-0.00018814763090053898
-0.030625229475588413
-0.040611652198278406
-0.04318082036066609
-0.009054910345677554
-0.013709185016727955
-0.018317311603860933
-0.0047435541128770155
-0.07991661445714575
-0.009314683289997074
-0.07721538929677178
-0.013312028477127091
-0.0030510062042564266
-0.0024025022371653333
-0.03536475053734358
-0.0017627794433324392
-0.00036800770691695813
-0.00032338447634796885
-0.0024062435003796585
-0.0004859198614648643
-0.03339556079746279
-0.0008349574051907539
-0.009389482674557038
-0.004030786985777866
-0.08136048508075304
-0.011177952074647501
-0.021146764498687066
-0.007644678076021636
-0.08562649633690511
-0.004328212757658606
-0.015217786038271206
-0.010114678906259148
-0.0643388179655918
-0.012408382135680542
-0.06393371927116973
-0.01556327836153853
-0.0008177125389070722
-0.0009482075318269182
-0.07003749364443608
-0.029945803769377097
-0.0007084815324314895
-0.044711553005908636
-0.000920719715785434
-0.021506519865741664
-0.0026233812062281623
-0.0640692789882452
-0.00390767210620161
-0.01423094042952417
-1.238879005052116e-05
-0.022932923678159058
-2.8093232157486916e-05
-0.0070259574332798705
-0.026086275466033718
-2.1740599121989963e-05
-7.5612040990444195e-06
-0.07384936324056111
-0.04939151577209431
-0.004995164294719162
-0.06235150114810971
-0.006398739965483415
-0.06864746198256581
-0.01102457445072937
-0.0016332780027077897
-0.001502433416687274
-0.0772841165365986
-0.014270531674186938
-0.050371265067951164
-0.013233455074819593
-0.008375662386744046
-0.014828894506412865
-0.030618554012325192
-0.019696997250017362
-0.01742023380915444
-0.006765923094941456
-0.016135451067379167
-0.008196926520676247
-0.001708297930489272
-0.06038234492090464
-0.0031880342285110206
-0.07532917604207108
-0.036430354120862714
-0.04976367299110393
-0.0596420247838874
-0.06063714383855635
-0.013460562573259541
-0.016508965297793145
-0.030393078717961604
-0.004759017124142588
-0.07131269369685225
-0.007297982806576901
-0.010393777629475054
-0.007106502121798326
-0.02825031849280874
-0.09012299939705821
-0.035480114390182
-0.06371614284286718
-0.005469878374486224
-0.055965410020533776
-0.006363305616369271
-0.0011294448248961488
-0.0003544220904324046
-0.032878274012904087
-0.0008165174400142616
-0.061082061399973166
-0.059458530127082056
-0.0672554626287123
-0.029379882724271538
-0.025471469071102176
-0.014100490989245169
-0.03356344785103119
-0.07436479050842232
-0.07642927912449572
-0.08172767766133608
-0.003037293403073168
-0.025911683676576525
-0.002908241430265671
-0.08157627685906803
-0.003946373298342505
-0.03793575600584925
-0.00402613772452547
-0.046452931994101804
-0.002244938898532983
-0.05303995687499469
-0.002788954627686405
-0.021007963855694124
-0.0011229773957553877
-0.0515400293809346
-0.0015889192231671118
-0.024051499830567997
-0.010120019447014884
-0.02252777296278364
-0.08235679160583358
-0.0106792338061689
-0.05737856186806854
-0.011554032568476258
-0.035919746937271735
-0.01897570883493601
-0.0031000663135753994
-0.00021244064135635688
-0.026402791014042082
-0.0002632546994101674
-0.02717090438502003
-0.027190352611118327
-0.05650691944771293
-0.012850044288289965
-0.0013080999735147196
-0.053217796678419194
-0.0018731512965621073
-0.00872739586783912
-0.042359139902406515
-0.00796849235913364
-0.03308915988567651
-0.00023924579822094246
-0.03418568727537278
-0.0003349310188569625
-0.03289418315542989
-0.0018662664335592966
-0.00024507805015429427
-0.00024937978180657313
-0.0007224804336820614
-0.0003091410906685099
-0.03100124038439919
-0.0008358328755784159
-0.004772419284375826
-0.0012565305302563701
-0.05508910161560971
-0.0027327140117379394
-0.010721844346622572
2.4639611236705097e-06
-0.012839790929459348
3.199271868957648e-06
-0.06994165153413917
-0.020233214249965777
-0.011405649668519202
-0.031063450906693803
-0.05956064196217412
-0.0007497768849948098
-0.029267788985134126
-0.000930638449141489
-0.030627551833466996
-0.0023036819700243297
-0.0001286341233180123
-0.0001649832098935252
-0.006641743760254111
-0.013546874701637969
-0.02153635456446055
-0.08579599180632949
-0.03821271635671386
-0.0611338049043309
-0.006023039050579217
-0.0016660841681088202
-0.001239064151444043
-0.08445921089981485
-0.09099169336841845
-0.0746841646192205
-0.023202167161391264
-0.0017348122711413141
-0.0018437667734872703
-0.05749882749590206
-0.0007260415616632622
-0.00859688385724367
-0.000789227513632623
-0.07854333393843452
-0.07224208266228194
-0.017198426198184326
-0.0005728749072364281
-0.04330621047766708
-0.0007585347377803836
-0.04023817097055993
-0.002510006095346852
-0.0011819976567156644
-0.056458850461624216
-0.0034925084932140933
-0.032711215673729546
-0.001160517415215822
-0.000477308953754702
-0.0003095655081859606
-0.06788144050634753
-0.0500238015868008
-0.06730526932856548
-0.0327574116805712
-0.07313863498189538
-0.005858330070266737
-0.07803055990394896
-0.003036797110525053
-0.009964521473223539
-0.05858915863455256
-0.03289783562917628
-0.014502685343203892
-0.02204398489355097
-0.08947853891622248
-0.012306211117982462
-0.016757471702607142
-0.009363164297258628
-5.125102855805371e-05
-3.844593151487201e-05
-6.505031302610358e-05
-0.028464078038043253
-0.003962422457898541
-0.025901896553594855
-7.666754293447815e-05
-0.017667803129418316
-0.04416522521387346
-0.01377500335251657
-0.04702533047967584
-0.04744158356499165
-0.013065796558423621
-0.03420057915004307
-0.009288094486368928
-0.06537948078671713
-0.04149219836116502
-0.07171903921900567
-0.0019550127512529634
-0.03478394442672372
-0.002182405170222848
-0.08433151330778088
-0.06468541029348043
-0.0028474043485015176
-0.06335004445110261
-0.0019478488925435437
-0.04699024554655275
-0.04231996731257803
-0.003287083299813828
-0.0022785551025086745
-0.0076013655348378265
-0.021823616353653465
-0.005139726727207467
-0.08016197177186031
-0.002539404545999562
-0.06307806500201561
-0.0014934984867090316
-0.005542504143501449
-0.02741946774004703
-3.1659472870646444e-05
-0.023584772191237533
-6.217606298143486e-05
-0.0033350753091797745
-9.34477402773018e-05
-0.022422770433866923
-0.00012225146236810824
-0.016322294031378005
-0.01646572278865499
-0.057062954886141805
-0.005136308461397943
-8.160422935827144e-05
-0.0239756238013036
-0.00011174663399296648
-0.029087854892771853
-0.0025952582350436387
-8.400496612220584e-05
-0.0001176361301888717
-0.050238832951281016
-0.041506341763811565
-0.0013868901173075038
-0.04891377185931718
-0.0017489043787856685
-0.010899404531703516
-0.0033961436652220644
-0.07514076454961471
-0.007668752660760293
-0.06061238607534183
-0.0037097536706951774
-0.05296721253887485
-0.004384022261982897
-0.00757463460603552
-0.03206364982561246
-0.006464321525747855
-0.04196236982305543
-0.0857360340370596
-0.08525600662564245
-0.016841914106994222
-0.03535362302794389
-0.011260480366762351
-0.040147841451736846
-0.017198291879797
-8.76233208225973e-05
-0.00014487366465138683
-0.03591823451351741
-0.003250783130396616
-0.062152338126726374
-0.004407869040906081
-0.07700818735448761
-0.00433352064964683
-0.04363195968803727
-0.004575839220696753
-0.023665031511373065
-0.06739495420415056
-0.0480127236766364
-0.02436350324808299
-0.023854861331929135
-0.08562321692583084
-0.0004487676136361614
-0.00010134236610217201
-0.01934765193770276
-0.0002019261173909985
-0.04388759741910628
-0.0833239180712671
-0.02102733367442713
-0.03840789061276616
-0.024349296637551296
-0.0052659047293002175
7.049360815707328e-08
-0.008328678790292062
-0.018727657638081593
-0.01639298164393748
2.333215364454741e-06
3.3727766493464166e-06
3.9061553876964294e-07
-0.05473788693356746
-0.004466728985493352
-0.004795990282563376
-0.02497149388582126
-0.019577840095077504
-0.004117645097659952
-0.0037327407537460305
-0.08714624899344262
-0.04144321672605951
-0.011867259216353773
-0.04226133230134453
-0.009993557780429305
-0.030781422912201532
-0.08558024437293268
-0.03828843468901479
-0.0021752243240740054
-0.05588603127769596
-0.0028306422541409986
-0.07841647170761423
-0.008926969315736792
-0.0679062786849414
-0.011727640996639624
-0.08339756733577411
-0.04317649031999103
-0.005472859901596759
-0.066521036849646
-0.007479011749850714
-0.04794791158108435
-0.015284026636531596
-0.0002026078849288689
-0.0002916541510482516
-0.07820117682748574
-0.020340538842780625
-0.00232834794092707
-0.0022673394036711357
-0.06064871993527386
-0.023804739423950515
-0.05166401929275869
-0.08850574157151243
-0.017993390972127665
-0.010924236800025152
-0.019681201847802993
-0.06131608389168052
-0.03276457397222417
-0.014047132226595697
-0.008107365112406107
-0.025736946691458058
-0.00616262031833595
-0.03701229615900527
-0.005712064892328618
-0.016168914515421677
-0.003611688989005776
-0.006720506793514601
-0.06541795325143145
-0.08202133768454253
-0.03136095171601249
-0.0033470244537935154
-0.003306221954922526
-0.019140962326486544
-0.00029214855528839686
-0.037868369185645415
-0.0003925951228288337
-0.048745058071415805
-0.008669480617670497
-0.00029727323100463434
-0.0003886648691104348
-0.040707786240538016
-0.018573595106676142
-0.05669695359665459
-0.013297567188411866
-0.005154894982095552
-0.012872217742640633
-0.027521891755157735
-0.0009073231278430365
-0.00023529760053075585
-0.00018865173127496435
-0.07874161192487494
-0.017655209095512006
-0.032011030589424054
-0.00011473354995611458
-0.00016678373210504054
-0.07218882184806165
-0.005577539927417637
-0.05036042835052424
-0.006071983959090203
-0.0475231084530205
-0.025656855430585813
-0.003658067424045959
-0.06871693823747697
-0.00557477177667268
-0.0792900988654758
-0.0039243411392070994
-0.012966361251237735
-0.0027642773471354158
-0.08910444705088791
-0.03583488162036203
-0.08921877275591283
-0.05937447811954833
-0.0005661544537356737
-0.02147830464338376
-0.0007174734203272929
-0.015965095198813964
-0.0063026961386295
-0.05185365713027303
-0.009476424686024295
-1.7950566611484277e-05
-0.023347054826688897
-3.301393336881069e-05
-0.023059531833816118
-0.003659577801990002
-9.006985182072062e-06
-2.104800129985437e-05
-0.0760724324175282
-0.012931194139749119
-0.0066390139106578625
-0.019892166442597226
-0.056883693049577085
-0.0009857746352535592
-0.036799229041844746
-0.001213149128748067
-0.02141903851293518
-0.0009759074913801905
-0.0017838516018505782
-0.052316313691451566
-0.04529575017245204
-0.008363036086973826
-0.04756957037278069
-0.008224933379678747
-0.0008941555972806908
-0.0001248905484209072
-0.02255682446505719
-0.00021607931701049177
-0.07422944148237612
-0.07126163589476306
-0.07412767533658536
-0.015879789959139523
-0.0023813299564877516
-0.06405791679792433
-0.003810090790957089
-0.05790191998252938
-0.0009870725405463894
-0.006771809817609764
-0.0009347260211460773
-0.03112781072170964
-0.0001454397092251868
-0.03130101835946558
-0.00021651776049067055
-0.03792870929358566
-0.03853047244761131
-0.0005030734218422975
-0.0390068598890527
-0.0006564139854613873
-0.09047183129194003
-0.023565491388632915
-0.004641064088009875
-0.007901239187645182
-0.04832268452151519
-0.000348293528488199
-0.028968874250518018
-0.0004775204452153541
-0.008160711215551305
-0.0050162449048820005
-0.0190076637495232
-0.024662960027373358
-0.013051178711163045
-0.0006775359733353829
-0.04702594196771344
-0.0010913219275845054
-0.017656305071548726
-0.0006098465749546966
-5.032835831130251e-05
-5.9598764209319654e-05
-0.006456476596684662
-0.012006783094991303
-0.04225259930378376
-0.013431095022433143
-0.022880252531494102
-0.06830129023271603
-0.025196562187436437
-0.036651241375748184
-0.007115202822442257
-0.01086758081991737
-0.0011670239007634592
-9.112753750817161e-05
-0.02019716933047338
-0.00013206906137104473
-0.015478376813317318
-0.0163660980672324
-0.007488041147752582
-0.019703772823203368
-0.04711889036539897
-0.021788483347402094
-0.00020572680716822623
-0.00030353451156478153
-0.01989765404891962
-0.0886002844625333
-0.006710993676902805
-0.0022086699206600013
-0.06699568090097392
-0.005112472474426373
-0.05826420308162475
-0.05206476277348646
-0.021799796462414332
-0.07313742032035377
-0.011982585040611608
-0.05286818601609616
-0.01189779750646405
-0.007221070921393946
-0.06558267388820394
-0.00937467370827698
-0.04696020114093571
-0.02495699940135742
-0.05610163113897103
-0.0004430136795414641
-0.00017112628728575312
-0.023179928636551987
-0.00043296090983856823
-0.01013792183485286
-0.0037769513118355875
-0.07941084898415197
-0.009439679580625427