# vtk DataFile Version 1.0
2D Simulation C++
ASCII
DATASET UNSTRUCTURED_GRID
FIELD FieldData 1
NODES 1 2 int
2209 4256

POINTS 2209 double
0.0 0.0 0.0
0.0 1.0 0.0
1.0 1.0 0.0
1.0 0.0 0.0
0.0 0.02500000037252903 0.0
0.0 0.05000000074505806 0.0
0.0 0.07500000298023224 0.0
0.0 0.10000000149011612 0.0
0.0 0.125 0.0
0.0 0.15000000596046448 0.0
0.0 0.17499999701976776 0.0
0.0 0.20000000298023224 0.0
0.0 0.22499999403953552 0.0
0.0 0.25 0.0
0.0 0.2750000059604645 0.0
0.0 0.30000001192092896 0.0
0.0 0.32499998807907104 0.0
0.0 0.3499999940395355 0.0
0.0 0.375 0.0
0.0 0.4000000059604645 0.0
0.0 0.42500001192092896 0.0
0.0 0.44999998807907104 0.0
0.0 0.4749999940395355 0.0
0.0 0.5 0.0
0.0 0.5249999761581421 0.0
0.0 0.550000011920929 0.0
0.0 0.574999988079071 0.0
0.0 0.6000000238418579 0.0
0.0 0.625 0.0
0.0 0.6499999761581421 0.0
0.0 0.675000011920929 0.0
0.0 0.699999988079071 0.0
0.0 0.7250000238418579 0.0
0.0 0.75 0.0
0.0 0.7749999761581421 0.0
0.0 0.800000011920929 0.0
0.0 0.824999988079071 0.0
0.0 0.8500000238418579 0.0
0.0 0.875 0.0
0.0 0.8999999761581421 0.0
0.0 0.925000011920929 0.0
0.0 0.949999988079071 0.0
0.0 0.9750000238418579 0.0
0.02500000037252903 1.0 0.0
0.05000000074505806 1.0 0.0
0.07500000298023224 1.0 0.0
0.10000000149011612 1.0 0.0
0.125 1.0 0.0
0.15000000596046448 1.0 0.0
0.17499999701976776 1.0 0.0
0.20000000298023224 1.0 0.0
0.22499999403953552 1.0 0.0
0.25 1.0 0.0
0.2750000059604645 1.0 0.0
0.30000001192092896 1.0 0.0
0.32499998807907104 1.0 0.0
0.3499999940395355 1.0 0.0
0.375 1.0 0.0
0.4000000059604645 1.0 0.0
0.42500001192092896 1.0 0.0
0.44999998807907104 1.0 0.0
0.4749999940395355 1.0 0.0
0.5 1.0 0.0
0.5249999761581421 1.0 0.0
0.550000011920929 1.0 0.0
0.574999988079071 1.0 0.0
0.6000000238418579 1.0 0.0
0.625 1.0 0.0
0.6499999761581421 1.0 0.0
0.675000011920929 1.0 0.0
0.699999988079071 1.0 0.0
0.7250000238418579 1.0 0.0
0.75 1.0 0.0
0.7749999761581421 1.0 0.0
0.800000011920929 1.0 0.0
0.824999988079071 1.0 0.0
0.8500000238418579 1.0 0.0
0.875 1.0 0.0
0.8999999761581421 1.0 0.0
0.925000011920929 1.0 0.0
0.949999988079071 1.0 0.0
0.9750000238418579 1.0 0.0
1.0 0.9750000238418579 0.0
1.0 0.949999988079071 0.0
1.0 0.925000011920929 0.0
1.0 0.8999999761581421 0.0
1.0 0.875 0.0
1.0 0.8500000238418579 0.0
1.0 0.824999988079071 0.0
1.0 0.800000011920929 0.0
1.0 0.7749999761581421 0.0
1.0 0.75 0.0
1.0 0.7250000238418579 0.0
1.0 0.699999988079071 0.0
1.0 0.675000011920929 0.0
1.0 0.6499999761581421 0.0
1.0 0.625 0.0
1.0 0.6000000238418579 0.0
1.0 0.574999988079071 0.0
1.0 0.550000011920929 0.0
1.0 0.5249999761581421 0.0
1.0 0.5 0.0
1.0 0.4749999940395355 0.0
1.0 0.44999998807907104 0.0
1.0 0.42500001192092896 0.0
1.0 0.4000000059604645 0.0
1.0 0.375 0.0
1.0 0.3499999940395355 0.0
1.0 0.32499998807907104 0.0
1.0 0.30000001192092896 0.0
1.0 0.2750000059604645 0.0
1.0 0.25 0.0
1.0 0.22499999403953552 0.0
1.0 0.20000000298023224 0.0
1.0 0.17499999701976776 0.0
1.0 0.15000000596046448 0.0
1.0 0.125 0.0
1.0 0.10000000149011612 0.0
1.0 0.07500000298023224 0.0
1.0 0.05000000074505806 0.0
1.0 0.02500000037252903 0.0
0.9750000238418579 0.0 0.0
0.949999988079071 0.0 0.0
0.925000011920929 0.0 0.0
0.8999999761581421 0.0 0.0
0.875 0.0 0.0
0.8500000238418579 0.0 0.0
0.824999988079071 0.0 0.0
0.800000011920929 0.0 0.0
0.7749999761581421 0.0 0.0
0.75 0.0 0.0
0.7250000238418579 0.0 0.0
0.699999988079071 0.0 0.0
0.675000011920929 0.0 0.0
0.6499999761581421 0.0 0.0
0.625 0.0 0.0
0.6000000238418579 0.0 0.0
0.574999988079071 0.0 0.0
0.550000011920929 0.0 0.0
0.5249999761581421 0.0 0.0
0.5 0.0 0.0
0.4749999940395355 0.0 0.0
0.44999998807907104 0.0 0.0
0.42500001192092896 0.0 0.0
0.4000000059604645 0.0 0.0
0.375 0.0 0.0
0.3499999940395355 0.0 0.0
0.32499998807907104 0.0 0.0
0.30000001192092896 0.0 0.0
0.2750000059604645 0.0 0.0
0.25 0.0 0.0
0.22499999403953552 0.0 0.0
0.20000000298023224 0.0 0.0
0.17499999701976776 0.0 0.0
0.15000000596046448 0.0 0.0
0.125 0.0 0.0
0.10000000149011612 0.0 0.0
0.07500000298023224 0.0 0.0
0.05000000074505806 0.0 0.0
0.02500000037252903 0.0 0.0
0.5071187662477317 0.5042963413425263 0.0
0.7125020267188448 0.703374956317902 0.0
0.7038679676020576 0.29616867929794044 0.0
0.29807392216748185 0.7070605100664751 0.0
0.29614444686733693 0.2968689876591074 0.0
0.7772274135992008 0.5063675939200104 0.0
0.5035196777153257 0.2233399910403784 0.0
0.49327325088306456 0.7791931977674125 0.0
0.22423228080418942 0.4975481091255919 0.0
0.8298868665604014 0.8222156059902239 0.0
0.8205043776921455 0.17224214887756312 0.0
0.18150512840164076 0.8306122605248003 0.0
0.17221413673389244 0.18121607337264897 0.0
0.6440054623790614 0.5666439143836594 0.0
0.5645557809438874 0.3681193140230588 0.0
0.44278822461713063 0.6356867007239536 0.0
0.363909212749243 0.42903202519107203 0.0
0.8460578633608032 0.6451950259793492 0.0
0.6452005698630846 0.1566840840489854 0.0
0.35157148957661244 0.8430346366192578 0.0
0.1568124065877021 0.35647776156266214 0.0
0.6496535804399921 0.8425196308137408 0.0
0.8432881624730197 0.35955148035307816 0.0
0.1594408098109731 0.6438667288738041 0.0
0.3595135739468199 0.1583325371882338 0.0
0.6750435526794804 0.4500769428681552 0.0
0.5848984872879206 0.6773316528615039 0.0
0.4477369287117172 0.32113736411748045 0.0
0.3298630306915275 0.5571295638291063 0.0
0.8831239495583074 0.5328725918632902 0.0
0.5327294903313253 0.11452241352374351 0.0
0.4678674626867641 0.8871659669877441 0.0
0.1142567073019625 0.47026472602718855 0.0
0.8988231483057141 0.7431538912569929 0.0
0.7431100223505102 0.10376542743583937 0.0
0.2599850328419109 0.8982140311088109 0.0
0.10453427439603766 0.2591320833683452 0.0
0.7465299147844318 0.8844074815052262 0.0
0.11999640511118952 0.7454125733807248 0.0
0.882144950658392 0.2575760567729513 0.0
0.25704628320991446 0.1196621572484399 0.0
0.7428414478662643 0.6053676462346012 0.0
0.6100757391189039 0.25217162554969846 0.0
0.39651613485900916 0.7493595524614022 0.0
0.2558087979716949 0.395645958262844 0.0
0.5244513755005097 0.5928277440026825 0.0
0.8998360650081372 0.8868049353084192 0.0
0.8857958444898322 0.1020973907794661 0.0
0.11723306488055107 0.9008086161713637 0.0
0.10184546322612711 0.11687378425865194 0.0
0.7627140842804264 0.39366562289935997 0.0
0.23997326140583555 0.6112168271978955 0.0
0.3920421183898178 0.2370411979600339 0.0
0.8984440464124829 0.43860840129260376 0.0
0.4380436896834946 0.10372047959299073 0.0
0.5663382466137572 0.8960795455699466 0.0
0.10402511232310518 0.5650189838490359 0.0
0.7895451373767859 0.7440002570385038 0.0
0.7435325178989954 0.212977990792916 0.0
0.2589584570081212 0.7900362559487832 0.0
0.2127409650044582 0.2581212443335699 0.0
0.7215958099201893 0.8015337265015231 0.0
0.7951756040265427 0.28507524790007505 0.0
0.20726356792614942 0.7182026321865994 0.0
0.2889955439184502 0.202150300723618 0.0
0.5956251484853263 0.4960677489319253 0.0
0.49239192110070623 0.4132722380685245 0.0
0.4265571780021931 0.5472996648167754 0.0
0.6333556965817765 0.7592201161368017 0.0
0.6531508817290334 0.3560790001853188 0.0
0.49713033401180884 0.6931683039009768 0.0
0.35550878741888453 0.6434789173604887 0.0
0.35104582506078263 0.34817953773121413 0.0
0.9171664855295621 0.8168081994660542 0.0
0.8166431897471381 0.08519914963141897 0.0
0.1861501303916201 0.9176993582301313 0.0
0.08510457204325929 0.1858954610420833 0.0
0.8292729917781986 0.9113642822837471 0.0
0.09220562030644525 0.8294827857516979 0.0
0.9100534087753186 0.17320528870798427 0.0
0.1729867031223242 0.09190265035704787 0.0
0.6993062938445459 0.5193340288610704 0.0
0.6500868554200335 0.6499567589888045 0.0
0.5137805565805184 0.3048901824469863 0.0
0.30146842911770355 0.48503034070380796 0.0
0.9185477323888281 0.6091103024578782 0.0
0.6145589240551103 0.08669487166508506 0.0
0.39679041362378425 0.9219885665288989 0.0
0.0845891888960496 0.3883926086573777 0.0
0.6654258645207214 0.9205314287669549 0.0
0.08237538752152483 0.6634201760142703 0.0
0.9199023702553951 0.3397303532098921 0.0
0.3396007440304877 0.08225094714722654 0.0
0.8224809424735456 0.43838972171846885 0.0
0.5680739606617199 0.8173622175823936 0.0
0.4369760033642746 0.17833505264436722 0.0
0.17987341590446218 0.5658347836215776 0.0
0.4354114330462751 0.4587932673436917 0.0
0.8195024374275038 0.571427674741628 0.0
0.5697226601223552 0.18233922700437677 0.0
0.43171170134849973 0.8196770262496138 0.0
0.18241092368236558 0.43267469902661343 0.0
0.772207846609948 0.668943727757394 0.0
0.6694650532386066 0.22702514818624023 0.0
0.3327532372393447 0.7767933613617798 0.0
0.22719400458107802 0.3323526471290062 0.0
0.9301387725974474 0.6859261705728622 0.0
0.6862665763232021 0.07299915598606344 0.0
0.31400828946895676 0.9280393235325117 0.0
0.07566978359441498 0.3130938066829469 0.0
0.5623390760488783 0.741241378074229 0.0
0.6035305213820675 0.4206810823355104 0.0
0.3767858464463125 0.4995815932986268 0.0
0.7351596095601776 0.46023513974701186 0.0
0.4567917181620389 0.2634715362818027 0.0
0.2683437611524137 0.5434501803556496 0.0
0.5887168496615959 0.6152243191058223 0.0
0.41927612617038135 0.3877841203458819 0.0
0.5731699999969864 0.5431168379574226 0.0
0.5493279751109085 0.4495895482176316 0.0
0.9348019721709496 0.49831045213312486 0.0
0.498926774897722 0.06766753002819134 0.0
0.503506568911243 0.9332280715518815 0.0
0.06774915306020822 0.5038516455450898 0.0
0.8459709541526914 0.5002007194409562 0.0
0.49838217608557944 0.15477536862489516 0.0
0.5001486599651129 0.8435181229414104 0.0
0.15523252625453643 0.5040737276221395 0.0
0.8455179944793825 0.6989153374915629 0.0
0.6991169365936571 0.15717296938363276 0.0
0.3025394816799505 0.8448198656689753 0.0
0.15723601482472754 0.30269173944883554 0.0
0.7725083050979419 0.8387077700581979 0.0
0.8356307603192399 0.23037786674289143 0.0
0.16601565793788697 0.7728054579497056 0.0
0.2296571972061723 0.16520176597470554 0.0
0.7626609120448915 0.32877624836242925 0.0
0.2392230688404987 0.6749554817512606 0.0
0.32735524592332144 0.23835122766432043 0.0
0.6402770776781592 0.3025003198184983 0.0
[...]
POINT_DATA 2209
SCALARS Psi double
LOOKUP_TABLE default
0.0
0.0
0.0
0.0
0.0
0.0
0.0
0.0
0.0
0.0
0.0
0.0
0.0
0.0
0.0
0.0
0.0
0.0
0.0
0.0
0.0
0.0
0.0
0.0
0.0
0.0
0.0
0.0
0.0
0.0
0.0
0.0
0.0
0.0
0.0
0.0
0.0
0.0
0.0
0.0
0.0
0.0
0.0
0.0
0.0
0.0
0.0
0.0
0.0
0.0
0.0
0.0
0.0
0.0
0.0
0.0
0.0
0.0
0.0
0.0
0.0
0.0
0.0
0.0
0.0
0.0
0.0
0.0
0.0
0.0
0.0
0.0
0.0
0.0
0.0
0.0
0.0
0.0
0.0
0.0
0.0
0.0
0.0
0.0
0.0
0.0
0.0
0.0
0.0
0.0
0.0
0.0
0.0
0.0
0.0
0.0
0.0
0.0
0.0
0.0
0.0
0.0
0.0
0.0
0.0
0.0
0.0
0.0
0.0
0.0
0.0
0.0
0.0
0.0
0.0
0.0
0.0
0.0
0.0
0.0
0.0
0.0
0.0
0.0
0.0
0.0
0.0
0.0
0.0
0.0
0.0
0.0
0.0
0.0
0.0
0.0
0.0
0.0
0.0
0.0
0.0
0.0
0.0
0.0
0.0
0.0
0.0
0.0
0.0
0.0
0.0
0.0
0.0
0.0
0.0
0.0
0.0
0.0
0.0
0.0
-0.06006609186873735
-0.09034322697736401
-0.013811937173731434
-0.057351146848826744
-0.01386193182376616
-0.03492641246056405
-0.01221954452663757
-0.09265724927513136
-0.024220659496634697
-0.06822991425202982
-0.0015245384676819235
-0.038252400534463604
-0.0022806221681349287
-0.07219743258177196
-0.03229662030944611
-0.07751383926320383
-0.03492443364733652
-0.039912012192870126
-0.004717623695449531
-0.06942047120287738
-0.0075150112511701
-0.09113855219926423
-0.007257397173680212
-0.021617528583306938
-0.005216176989729713
-0.0410803887724902
-0.09570630266918113
-0.024034918785207155
-0.04834177657893256
-0.013704601686354827
-0.0033381089701663676
-0.07201772563075626
-0.0074069898154184586
-0.03129999793860001
-0.0011469921749661855
-0.051097300783200475
-0.001959670727939505
-0.0735330856558013
-0.017618345780821405
-0.0015889919145045898
-0.001951900815422555
-0.06481299165583397
-0.013725611530281998
-0.07910263870769256
-0.019506884562911154
-0.07930090733864088
-0.041267094596568875
-9.42822140659298e-05
-0.028008693563542093
-0.00031300394769223465
-0.01960968025756639
-0.03668872731918763
-0.01224368160263117
-0.00546118210554983
-0.002713632431612294
-0.07288680295667702
-0.008603229747745135
-0.07688085717121415
-0.005266037012171788
-0.053452803164817334
-0.0065981931910055885
-0.09274977255846144
-0.006744963147981255
-0.037040645016425566
-0.006441905012033632
-0.058491119214506795
-0.04086212109398297
-0.06143673628263851
-0.10084351191838009
-0.025634516293425388
-0.0910519398728176
-0.06354397356279153
-0.022858086565441436
-0.02936776451977167
-0.00030803467590770806
-0.03993405836787627
-0.0006410376130630684
-0.05491885120767625
-0.015616935393627041
-0.0002513124371353472
-0.0005569575491723946
-0.053324949589967606
-0.08965482624497836
-0.022556357978885333
-0.0347638020503413
-0.010914104570773618
-0.001631552098970021
-0.055032783357801526
-0.002940123706214501
-0.06110389495015276
-0.007419035816462466
-0.0015012789671742055
-0.0013824149982599283
-0.016076446099734316
-0.09476619011573807
-0.007662666951187292
-0.021365101291563493
-0.04641293768673041
-0.035864060618412186
-0.007809826597936302
-0.08233073965047089
-0.013859280602905104
-0.07041481217850869
-0.009105755221220728
-0.06812182804427225
-0.011913324565706002
-0.013062181267065247
-0.0008481918070343927
-0.04800352992481088
-0.001555501024334431
-0.09936373547505933
-0.041056413234445976
-0.04716596304201303
-0.034436583402396234
-0.01654351646475709
-0.03586905692492584
-0.08563121180000886
-0.03300171235272683
-0.07010753036458629
-0.0490155336623654
-0.003483130615830222
-0.0012461209586807163
-0.05239780307314812
-0.003306300370089713
-0.01853791296807342
-0.0060588601946683085
-0.0856526412539976
-0.014036166944828649
-0.049152584812990056
-0.0036710344680770677
-0.062012525711607466
-0.005494354119561816
-0.08115861636657234
-0.0025102751686532834
-0.03043054337064093
-0.003077326183448067
-0.012458717493587658
-0.04156323228617402
-0.01033383070968457
-0.01855749009525136
-0.07096749008373426
-0.020508730780115902
-0.05672414485161268
-0.0018216016200233959
-0.005225169927709353
-0.0012921289983556952
-0.06352498232659208
-0.08482204727293566
-0.017609725829588384
-1.3898147914726154e-05
-0.02458464229612995
1.692776911536147e-05
-0.07071886994256148
-0.004306713162400429
-0.0009556085876988451
-0.04750782162747036
-0.002156926125565219
-0.01561393687105321
-0.00033220696669455414
-0.039230567437290996
-0.000634353342406955
-0.047494293164936266
-0.006709404449683189
-0.00027716508598963767
-0.0004965000067837099
-0.05895962906944609
-0.0021097288283193484
-0.049531111400032274
-0.0031390598995702135
-0.08741483078908054
-0.004574318735852746
-0.023005144339546996
-0.004225834713479853
-0.081954886903819
-0.059319339527810586
-0.031780014375649326
-0.04983450428282861
-0.021943466657614763
-0.09787192446825456
-0.02849073166860178
-0.0737317763203793
-0.01486183654254855
-0.02435381370721898
-0.019897416996827896
-3.083867686995546e-05
-0.030334591450611872
-0.00014261698863701796
-0.04098733312703787
-0.010983756798618002
-3.350183825432287e-05
-0.0001758628527389158
-0.08990893269967597
-0.028765147927085583
-0.019754070956986752
-0.04938330918419949
-0.08737420952440461
-0.02480736790540435
-0.004354340409321068
-0.07357425715162043
-0.007942859516042703
-0.08837398079128374
-0.008213024076305276
-0.05097480768089345
-0.008876235524619443
-0.09769841136544173
-0.05387115898883618
-0.009226644884911768
-0.0762789897332642
-0.013754341088717498
-0.0491228141413366
-0.005621310991921478
-0.0004893110725644085
-0.0006640763644664343
-0.05005777094916436
-0.0004338467022913534
-0.035306466641923225
-0.0008764697736827402
-0.015413137231977908
-0.008908246437534116
-0.027925284332986362
-0.08387709442813755
-0.07761667471045974
-0.003184126089421837
-0.04335572183117673
-0.00409585977860704
-0.019546481178487667
-0.05119326821396054
-0.015845657780299536
-0.005243770282990011
-0.0803909778072583
-0.0033667955284116292
-0.012990415216430533
-0.09822722358240149
-0.07453213433946898
-0.09625326935441268
-0.05627370418718896
-0.07239263846021049
-0.008894541950549869
-0.032025028112241095
-0.007063511432939514
-0.03894976555332837
-0.024424561488808057
-0.027000530816534266
-0.0013377317601163563
-0.0007776870697733778
-0.0446181185987457
-0.0026588861108956113
-0.07037173462123711
-0.025711998203038433
-0.0010733572049891776
-0.0016303237247640447
-0.009169654069474549
-0.0033149805232375327
-0.07535605488232339
-0.00863490003178828
-0.02446362469978406
-0.012166813362077119
-0.03097700123638942
-0.04848520835319822
-0.06239516741222826
-0.03099324448991644
-0.0025691280871433086
-0.06193438594939083
-0.004197938478064557
-0.005963036465371154
-0.0002300210964894134
-0.029415107982785696
-0.00036883352932039545
-0.0032822167404506306
-0.00035418234222904895
-0.03489894078798029
-0.0008044460520381615
-0.032102367841571965
-0.09630231809380974
-0.036171933533776277
-0.048961682088518664
-0.05540958689211008
-0.10019069722704331
-0.04886543221102073
-0.001007706420958051
-0.044818434977396425
-0.0017044147126672074
-0.08265675163586839
-0.00976209206121109
-0.060056397037072266
-0.011239210497126033
-0.053789550553496095
-0.00027846736469514666
-0.02557613233791157
-0.0006308768576361039
-0.06514092580594195
-0.02554135933303986
-0.09503548699239783
-0.07068660983693777
-0.03810189175769259
-0.04300177871124879
-0.09644831694536674
-0.03279760239770674
-0.03976773757546771
-0.06716552909653409
-0.04173967310998746
-0.04401005870708033
-0.016875177606440056
-0.021047046767963658
-0.03151746272313205
-0.08323910012911405
-0.09207285680611181
-0.009657301962538722
-7.615091193358035e-05
-0.029593218234995496
-0.00019143002146540102
-0.038321447037654784
-0.00545537670656471
-7.581859500466657e-05
-0.00022169851082235186
-0.04247409013285731
-0.05111140910166933
-0.05556114508922622
-0.011956118135504895
-0.018776707689911954
-0.023736198946440454
-0.006150764054975709
-0.08708034338422668
-0.012480745364183705
-0.08017438138432796
-0.015445194940650329
-0.003694740977991293
-0.003075950471315648
-0.035607284927667765
-0.0021315413212542786
-0.00039214548985668304
-0.00040920784178205907
-0.002922519661122641
-0.0005799358362196249
-0.033725901385520986
-0.0011683172980360738
-0.012360979408466682
-0.00523285765272491
-0.08664594658702622
-0.01441594687717276
-0.029635186372946955
-0.009912826783351808
-0.09137628503348015
-0.005664667404115204
-0.018928437969386768
-0.01335075912944308
-0.07363137177989587
-0.017116937755952622
-0.06514343063978685
-0.016202669012531166
-0.0007515786344729901
-0.0011579798637874055
-0.0853646143905015
-0.031850581892629626
-0.0006523307205941563
-0.04529233610955095
-0.001168493915101353
-0.025937388493450505
-0.0031367891959962453
-0.06669233681523021
-0.0053031291628105595
-0.01421038312368551
9.92609535752585e-06
-0.02306017505222702
-2.7990208891037763e-05
-0.007227756788222962
-0.02599261394446719
-2.1305004445264764e-05
1.2706091940791159e-05
-0.08240851576691112
-0.0572756264216755
-0.006136725551931199
-0.06707352377990212
-0.008667213154342794
-0.07050956227573558
-0.012313953927227322
-0.0018312968241642512
-0.001885585194421228
-0.09083014141781905
-0.019321221259782622
-0.06069807936494851
-0.018346394740890296
-0.011135353705230583
-0.020137933705965262
-0.03965434485697603
-0.027677834634213753
-0.023163495440828227
-0.009007922069113798
-0.02124633237748672
-0.010319547435989644
-0.002068183000615529
-0.06239898696898467
-0.004333110537932459
-0.080308710136213
-0.05007581206960717
-0.0632788864678666
-0.07719709256478023
-0.07252341994368544
-0.018360318821430695
-0.0229044147055427
-0.03730043010534842
-0.005967785537290455
-0.07647990902051251
-0.009936543391514778
-0.01368603594762025
-0.009512849470741793
-0.03448893894587259
-0.10062114567406065
-0.04926531288454419
-0.07213372175895963
-0.006697010173230626
-0.06106135727188381
-0.008587915568797332
-0.001371706422294676
-0.0004460080402843965
-0.032928562963094876
-0.0011206799701468948
-0.07911101510166904
-0.07706977704545986
-0.07939954827262664
-0.03933883724200191
-0.03481680510764238
-0.019599576408712644
-0.044020884781147435
-0.09136783276319536
-0.08967778318946415
-0.08550290172131278
-0.003464713125683147
-0.028321382273805703
-0.003738378069671501
-0.08733467703707817
-0.004616150767745065
-0.041344846256484456
-0.005286907751336566
-0.051182198515088206
-0.002426553440503846
-0.05503033175252087
-0.0036879890415244167
-0.023677033293722904
-0.0011929830563008927
-0.05261724045619374
-0.002107632420185157
-0.032300546761362355
-0.013784251965968374
-0.0298255715502562
-0.09717058306205055
-0.014101794525935333
-0.06636475307266398
-0.015899705930823786
-0.04887190204745241
-0.026660137388781258
-0.003472781195369973
-0.00022866966728675607
-0.026334384705150062
-0.0003694834588572979
-0.03809303067147098
-0.03819556582531891
-0.07099495654702205
-0.015264303469902697
-0.0014843575107937902
-0.054367694686853166
-0.0025401333073996886
-0.011285607257982853
-0.04908347302406227
-0.010784986755565808
-0.034037236581896765
-0.00014991838454172615
-0.03436148595329899
-0.000400750721920043
-0.03327749934511954
-0.0021425415666547726
-0.00023040819528268407
-0.00031013929859171225
-0.0008670228186733949
-0.0003922368613498778
-0.030912344713651153
-0.0011319949803346974
-0.00613245197262825
-0.0015554186508904978
-0.05665847503329644
-0.0036747334619849953
-0.010850813094553461
4.068614611401479e-06
-0.012573984822505362
5.341646094455716e-06
-0.08154920128934418
-0.02754460278607975
-0.01570258116792756
-0.039940417104061654
-0.0611867805503619
-0.0006310139524500324
-0.029710248333362416
-0.0011403044324896595
-0.030540177990676258
-0.002469257443043052
-9.426662774343347e-05
-0.00020123032690765193
-0.008802048550654695
-0.018083940193848087
-0.02837038223336953
-0.09719914395206328
-0.05315162647061329
-0.06265884534430234
-0.007143223974998169
-0.002004499568631548
-0.0015721761798019051
-0.0930191067183492
-0.09953442678709061
-0.07717670311393733
-0.02468683128666566
-0.0018047512294407887
-0.0023075485416015834
-0.05831321506402684
-0.0007094300913103842
-0.00920489981250472
-0.0009609835620856233
-0.08724898186600902
-0.08855939677055456
-0.018700083490843202
-0.0005510209883697267
-0.043823198007506024
-0.0009888335665626255
-0.055628722282685034
-0.003173227579325232
-0.0014982573139197945
-0.05791341641112387
-0.004519652708729182
-0.033187275254981746
-0.0015430877902374166
-0.0005475969158076598
-0.00039280178323140147
-0.0856130812233972
-0.06558234184649878
-0.08237062740028693
-0.045943754262750644
-0.0845651516899773
-0.0076021013071291684
-0.08213425544858467
-0.0039034122367021594
-0.012587383256895335
-0.07207141334671374
-0.04604821376562011
-0.020080514375424244
-0.03022275524781172
-0.09928748703683497
-0.016648432859373157
-0.023094907685408436
-0.009274988338837085
-2.3096897522897237e-05
-5.939391906421449e-06
-7.36199240854187e-05
-0.028326191628690597
-0.004040218923599704
-0.025874562114375187
-9.348871445639727e-05
-0.024260217354304107
-0.05451192874426187
-0.019095672429039957
-0.06377423775569281
-0.0640622063467911
-0.017494617955821676
-0.041967180061472015
-0.012640697604134391
-0.07955574466288617
-0.05604312332168329
-0.07501829203821359
-0.00201831076775427
-0.036427540149785886
-0.002790033999948689
-0.0940555447023753
-0.06967125671100337
-0.003160840048202565
-0.06718758140390417
-0.0020267836879902827
-0.049432313565603715
-0.043943812249852145
-0.004320773686745018
-0.002943401230935572
-0.009795106800107487
-0.026312609613468742
-0.006786689254007804
-0.09102311240673644
-0.0032155158142575598
-0.06537265286047973
-0.0019160296078622589
-0.006948058846853681
-0.02777299641023583
9.14794543403966e-06
-0.023712981311876446
-6.519794100085308e-05
-0.0034879245047441847
-8.525596570815966e-05
-0.022135979093549193
-0.00016325068094551103
-0.022451763502574024
-0.022855931402349386
-0.06924978422848851
-0.0051536761455047925
-6.231319408128071e-05
-0.023547205561973157
-0.00014681230623826878
-0.029124181102144774
-0.002723798965390013
-4.6418209361281934e-05
-0.00014015988908966365
-0.06580911452913661
-0.044889649066569066
-0.001399900861070319
-0.05007782333853539
-0.002267012617203762
-0.014235258917746565
-0.0043331399203959805
-0.07944248310609982
-0.010156128344710183
-0.06717422203339048
-0.00430036141042396
-0.05627831788935954
-0.005829896197616292
-0.009678893658586166
-0.03750104741879525
-0.008668907561560446
-0.054900806000308465
-0.09051429380466684
-0.08989089021833985
-0.022902123302925376
-0.04429353434580326
-0.015508839242595456
-0.040471421400360606
-0.01723678046314049
-2.030960059095227e-05
-0.00015893075768357042
-0.04164468740139875
-0.003824772366728341
-0.06530023696395472
-0.005956731398508384
-0.08352043207087666
-0.005106572405447446
-0.047424451395862634
-0.0060683621775984384
-0.03343542012798613
-0.08488815117152591
-0.06424972725118125
-0.03426734595535347
-0.033045898758142275
-0.09348451694463539
-0.0005123075145795395
-0.00012923292506018816
-0.01876830986278303
-0.00029271041110253673
-0.057423524217731454
-0.08959092143236778
-0.029678741042327178
-0.05322142177483288
-0.03419900201372686
-0.005432692513854296
1.5915773748343849e-06
-0.008025114403412373
-0.01850250930837173
-0.016378144516716594
6.771042192010397e-06
9.392592613022495e-06
2.4552307063907626e-06
-0.07028058018255223
-0.005392800140610097
-0.00593763262273092
-0.028417056332973673
-0.022890107748177364
-0.005374977499735298
-0.0048609489378535365
-0.0998948147462229
-0.05624944992170558
-0.015773124122954493
-0.05048803033658871
-0.013626528792426503
-0.042676701745901116
-0.09728094557867002
-0.042714110007985
-0.0024157692678298892
-0.05795125846887173
-0.003766108050716424
-0.09444991220459277
-0.011679628364378214
-0.0763118485150428
-0.016105729280676277
-0.09794448435711708
-0.051506889974351114
-0.006817563005457844
-0.07183198072204618
-0.010179070080359115
-0.048506359148383034
-0.01532732371179726
-0.00011093981595933683
-0.00033477586788127275
-0.08111468388588289
-0.02232146720387763
-0.0025998357556365325
-0.002877211290969369
-0.07694183484759644
-0.03288954070347846
-0.06542975252321884
-0.09590984352699669
-0.025020752747828185
-0.014858674489777422
-0.026622804534911913
-0.0780809855525728
-0.043068718768629485
-0.018822729944538485
-0.01095344207552968
-0.03247467625187589
-0.007683327786257326
-0.041878650768494036
-0.007629183766336461
-0.020620728662077318
-0.004557443080080515
-0.0090939905775917
-0.07612918339194948
-0.0864218401831944
-0.03411613848966719
-0.0038213817322426875
-0.004291480388039054
-0.019943885560349386
-0.00023246461101344951
-0.03811625464316634
-0.0004911724664364308
-0.04916892469162852
-0.008950499099009393
-0.00021731772696440926
-0.00045946636578388935
-0.054450180481097635
-0.026065883236155146
-0.07449337148714412
-0.01752338732901785
-0.006770858001033536
-0.016877152349596303
-0.02760208953851352
-0.0011396804825647509
-0.00025147995095111905
-0.0002432486589727507
-0.09366609020280756
-0.018105548798861327
-0.03217684070228897
-6.211109559883809e-05
-0.00020094002583980527
-0.08032548575498911
-0.0067892798902852835
-0.05532745186276271
-0.008176280448708832
-0.06453864729339721
-0.03146486967034019
-0.004484303536719034
-0.07247904583236679
-0.007619884182233879
-0.08282349945231018
-0.0048770038406269825
-0.015399734558256136
-0.003553518731247623
-0.09939341545750893
-0.04837413400535755
-0.09571768711372093
-0.06042915749867167
-0.00044411171602196813
-0.021862734769049538
-0.0008557883340976933
-0.022323963935669475
-0.007887348512302942
-0.053235680597362604
-0.009279572581251665
2.536749723041394e-06
-0.023451022741442003
-3.60629941030524e-05
-0.022916706463784967
-0.003731246894208437
8.545067687729831e-06
-2.227816773526961e-05
-0.09228337077872828
-0.017250085896983295
-0.008857612658086671
-0.025370708305209117
-0.05928718981113994
-0.0008905254227767386
-0.0375564357026064
-0.0015108831684926753
-0.029605311230755493
-0.0011719730546317702
-0.0024542193095195217
-0.06358327952367254
-0.057361907625118606
-0.010755505033968568
-0.054499893884151225
-0.011168231396103491
-0.000994949007336293
-0.00015132741368824903
-0.022509933485235417
-0.0003244162804363141
-0.08681449930653301
-0.07507751500052003
-0.07916164272308866
-0.01969547942717792
-0.0028632577379373936
-0.06653292167428208
-0.005164110631175168
-0.05917826480827254
-0.0010742792330045313
-0.007633696299021637
-0.0011510010251605416
-0.031747155803792934
-6.834806043551047e-05
-0.03145005246389068
-0.00024884171296829375
-0.04918053892585748
-0.04003626060654471
-0.0004012535017357376
-0.03930225043252322
-0.0008062731521066393
-0.0989086068055735
-0.02971620574055859
-0.00588190908153622
-0.01072166110503024
-0.04913312545631744
-0.00023454565111320563
-0.029133764563869517
-0.0005608255337052749
-0.010584583979748704
-0.006622932326081633
-0.02340217444666354
-0.03174101128795458
-0.014752536252115643
-0.0007051663591864924
-0.04776445432484436
-0.001462940557208051
-0.01728757505493629
-0.0007083161940734514
-3.582274647666874e-05
-7.602782272092083e-05
-0.008482947923398727
-0.01620231928865747
-0.05827957389689424
-0.018532017828058883
-0.03101522335497244
-0.08424644624571555
-0.03561466452749988
-0.04568391889032501
-0.009201393032284486
-0.014869421252142611
-0.0012271573769608206
-0.00010093887386944809
-0.01995931408702861
-0.00019321657420561078
-0.021634728764065213
-0.02200704211531116
-0.010049127791946222
-0.025597814038830654
-0.047750012240693404
-0.021900272645923213
-0.00011016849110426054
-0.00034692512593670094
-0.02766672381828592
-0.09585273712366821
-0.008695998091725709
-0.002791171769229186
-0.06989470254690545
-0.006763129309979279
-0.07635336150597573
-0.06193732590202327
-0.030506704254172977
-0.07993736149201068
-0.01597770807016978
-0.06221360225091944
-0.016401372596204514
-0.009226932436366266
-0.07240643094725961
-0.012828736120028087
-0.061771695955965385
-0.03429377731892688
-0.06956117214511419
-0.0005175357466339458
-0.00022139227644361358
-0.022868845236564312
-0.000596008507706532
-0.01328160890031021
-0.004862431147920578
-0.08444210755355959
-0.012389566589429964
-0.0750616090324701
-0.05833452043312893