# vtk DataFile Version 1.0
2D Simulation C++
ASCII
DATASET UNSTRUCTURED_GRID
FIELD FieldData 1
NODES 1 2 int
2209 4256

POINTS 2209 double
0.0 0.0 0.0
0.0 1.0 0.0
1.0 1.0 0.0
1.0 0.0 0.0
0.0 0.02500000037252903 0.0
0.0 0.05000000074505806 0.0
0.0 0.07500000298023224 0.0
0.0 0.10000000149011612 0.0
0.0 0.125 0.0
0.0 0.15000000596046448 0.0
0.0 0.17499999701976776 0.0
0.0 0.20000000298023224 0.0
0.0 0.22499999403953552 0.0
0.0 0.25 0.0
0.0 0.2750000059604645 0.0
0.0 0.30000001192092896 0.0
0.0 0.32499998807907104 0.0
0.0 0.3499999940395355 0.0
0.0 0.375 0.0
0.0 0.4000000059604645 0.0
0.0 0.42500001192092896 0.0
0.0 0.44999998807907104 0.0
0.0 0.4749999940395355 0.0
0.0 0.5 0.0
0.0 0.5249999761581421 0.0
0.0 0.550000011920929 0.0
0.0 0.574999988079071 0.0
0.0 0.6000000238418579 0.0
0.0 0.625 0.0
0.0 0.6499999761581421 0.0
0.0 0.675000011920929 0.0
0.0 0.699999988079071 0.0
0.0 0.7250000238418579 0.0
0.0 0.75 0.0
0.0 0.7749999761581421 0.0
0.0 0.800000011920929 0.0
0.0 0.824999988079071 0.0
0.0 0.8500000238418579 0.0
0.0 0.875 0.0
0.0 0.8999999761581421 0.0
0.0 0.925000011920929 0.0
0.0 0.949999988079071 0.0
0.0 0.9750000238418579 0.0
0.02500000037252903 1.0 0.0
0.05000000074505806 1.0 0.0
0.07500000298023224 1.0 0.0
0.10000000149011612 1.0 0.0
0.125 1.0 0.0
0.15000000596046448 1.0 0.0
0.17499999701976776 1.0 0.0
0.20000000298023224 1.0 0.0
0.22499999403953552 1.0 0.0
0.25 1.0 0.0
0.2750000059604645 1.0 0.0
0.30000001192092896 1.0 0.0
0.32499998807907104 1.0 0.0
0.3499999940395355 1.0 0.0
0.375 1.0 0.0
0.4000000059604645 1.0 0.0
0.42500001192092896 1.0 0.0
0.44999998807907104 1.0 0.0
0.4749999940395355 1.0 0.0
0.5 1.0 0.0
0.5249999761581421 1.0 0.0
0.550000011920929 1.0 0.0
0.574999988079071 1.0 0.0
0.6000000238418579 1.0 0.0
0.625 1.0 0.0
0.6499999761581421 1.0 0.0
0.675000011920929 1.0 0.0
0.699999988079071 1.0 0.0
0.7250000238418579 1.0 0.0
0.75 1.0 0.0
0.7749999761581421 1.0 0.0
0.800000011920929 1.0 0.0
0.824999988079071 1.0 0.0
0.8500000238418579 1.0 0.0
0.875 1.0 0.0
0.8999999761581421 1.0 0.0
0.925000011920929 1.0 0.0
0.949999988079071 1.0 0.0
0.9750000238418579 1.0 0.0
1.0 0.9750000238418579 0.0
1.0 0.949999988079071 0.0
1.0 0.925000011920929 0.0
1.0 0.8999999761581421 0.0
1.0 0.875 0.0
1.0 0.8500000238418579 0.0
1.0 0.824999988079071 0.0
1.0 0.800000011920929 0.0
1.0 0.7749999761581421 0.0
1.0 0.75 0.0
1.0 0.7250000238418579 0.0
1.0 0.699999988079071 0.0
1.0 0.675000011920929 0.0
1.0 0.6499999761581421 0.0
1.0 0.625 0.0
1.0 0.6000000238418579 0.0
1.0 0.574999988079071 0.0
1.0 0.550000011920929 0.0
1.0 0.5249999761581421 0.0
1.0 0.5 0.0
1.0 0.4749999940395355 0.0
1.0 0.44999998807907104 0.0
1.0 0.42500001192092896 0.0
1.0 0.4000000059604645 0.0
1.0 0.375 0.0
1.0 0.3499999940395355 0.0
1.0 0.32499998807907104 0.0
1.0 0.30000001192092896 0.0
1.0 0.2750000059604645 0.0
1.0 0.25 0.0
1.0 0.22499999403953552 0.0
1.0 0.20000000298023224 0.0
1.0 0.17499999701976776 0.0
1.0 0.15000000596046448 0.0
1.0 0.125 0.0
1.0 0.10000000149011612 0.0
1.0 0.07500000298023224 0.0
1.0 0.05000000074505806 0.0
1.0 0.02500000037252903 0.0
0.9750000238418579 0.0 0.0
0.949999988079071 0.0 0.0
0.925000011920929 0.0 0.0
0.8999999761581421 0.0 0.0
0.875 0.0 0.0
0.8500000238418579 0.0 0.0
0.824999988079071 0.0 0.0
0.800000011920929 0.0 0.0
0.7749999761581421 0.0 0.0
0.75 0.0 0.0
0.7250000238418579 0.0 0.0
0.699999988079071 0.0 0.0
0.675000011920929 0.0 0.0
0.6499999761581421 0.0 0.0
0.625 0.0 0.0
0.6000000238418579 0.0 0.0
0.574999988079071 0.0 0.0
0.550000011920929 0.0 0.0
0.5249999761581421 0.0 0.0
0.5 0.0 0.0
0.4749999940395355 0.0 0.0
0.44999998807907104 0.0 0.0
0.42500001192092896 0.0 0.0
0.4000000059604645 0.0 0.0
0.375 0.0 0.0
0.3499999940395355 0.0 0.0
0.32499998807907104 0.0 0.0
0.30000001192092896 0.0 0.0
0.2750000059604645 0.0 0.0
0.25 0.0 0.0
0.22499999403953552 0.0 0.0
0.20000000298023224 0.0 0.0
0.17499999701976776 0.0 0.0
0.15000000596046448 0.0 0.0
0.125 0.0 0.0
0.10000000149011612 0.0 0.0
0.07500000298023224 0.0 0.0
0.05000000074505806 0.0 0.0
0.02500000037252903 0.0 0.0
0.5065237591903222 0.5039524566688319 0.0
0.7121675223496282 0.7037254249194312 0.0
0.703268260803896 0.29571142326208366 0.0
0.2977903641611924 0.7078769205528498 0.0
0.2956542045485841 0.2973407705922112 0.0
0.7772723128252351 0.5063905648216952 0.0
0.503388552500594 0.22333477153510672 0.0
0.4927019291160013 0.7790866260137078 0.0
0.22374940759980677 0.49797990554182514 0.0
0.8296072754710869 0.822080488538309 0.0
0.8210380979125326 0.1719036716407419 0.0
0.18138051535161992 0.8305894327333397 0.0
0.171876551036345 0.18106181045050693 0.0
0.6437645154426936 0.567190010694904 0.0
0.5646253133486453 0.36793216891445263 0.0
0.4426930314138286 0.6360335778778343 0.0
0.3633565806123185 0.4291961254862703 0.0
0.8455574456477996 0.6445734232106359 0.0
0.6450789883017756 0.15661532894826463 0.0
0.35090346932890815 0.8432394992554856 0.0
0.1564398188115809 0.3566245718613254 0.0
0.6491285767496747 0.8426827034556091 0.0
0.8427326340157314 0.3593884179279765 0.0
0.15882795217053156 0.6443901705024224 0.0
0.35944027786529165 0.15818024615502088 0.0
0.6746979310501617 0.44994844827107067 0.0
0.5841680143058527 0.6778831094076058 0.0
0.4478356528055692 0.32141351467471657 0.0
0.32928847487736274 0.5577211050668249 0.0
0.8832003216494675 0.5324927839448288 0.0
0.5321663509681933 0.11436885395440866 0.0
0.4677024597418031 0.8869198724085987 0.0
0.1140352721366657 0.47026975331956444 0.0
0.898820133122742 0.7431114474043929 0.0
0.7428177366153563 0.10355851263574982 0.0
0.2596886315000482 0.898289000104545 0.0
0.10432495753829976 0.2594423199349607 0.0
0.7460838179349402 0.8843955499647896 0.0
0.11973078014516948 0.7452234029495525 0.0
0.8822404861152644 0.25752630592682 0.0
0.2567139228986891 0.11976151247060045 0.0
0.7423208579141743 0.6052534625226244 0.0
0.6097678818910572 0.25190518827767705 0.0
0.39589563419971724 0.7497056308032862 0.0
0.25543402531252507 0.3961492385174294 0.0
0.5242336739593897 0.5932816720328524 0.0
0.8998103030176544 0.8867729013816401 0.0
0.8857407533921412 0.10155957911937041 0.0
0.1168155825952199 0.9005810692480857 0.0
0.10167238616426932 0.11698173467528145 0.0
0.7623647468436 0.3931588434945571 0.0
0.23930341697681376 0.6115808885589342 0.0
0.39190768202445114 0.23697079852082942 0.0
0.898740655307623 0.43837867833054767 0.0
0.43805201125386584 0.10301838197573017 0.0
0.5661402910230131 0.8956555413859123 0.0
0.10371238318148186 0.5647035047083623 0.0
0.7890604162980969 0.7433850108319763 0.0
0.7431456267156629 0.21249618436985862 0.0
0.25803040870683647 0.7902943169394635 0.0
0.21262444780345002 0.258309825799371 0.0
0.7215973772629657 0.8015560664916193 0.0
0.79502879045564 0.2848857511546125 0.0
0.20672628377054358 0.7191208587190386 0.0
0.2886455048868019 0.20272366751042403 0.0
0.5951453877111053 0.4958348444821559 0.0
0.4918110167288459 0.4133444509374369 0.0
0.4260619020419508 0.5476525454127676 0.0
0.6333731736850958 0.7592080185836212 0.0
0.6528819585781985 0.3557486872518695 0.0
0.4968395859055818 0.6937756995731909 0.0
0.355182141953613 0.6441344264276527 0.0
0.3506899948146113 0.34902667568908247 0.0
0.9172659593213749 0.8167588543874642 0.0
0.8165620478162939 0.08481387102433825 0.0
0.18590845238569748 0.9175156304999097 0.0
0.08486804988302961 0.18622211038571185 0.0
0.8291366041813929 0.9110905611296688 0.0
0.09202987984056908 0.8295181107752934 0.0
0.9102896597345098 0.1729657797942919 0.0
0.1728205228956836 0.09205321645342948 0.0
0.6993684395588602 0.5191721186268174 0.0
0.6500239473704227 0.6499971659022886 0.0
0.5138041183049573 0.30478722987054035 0.0
0.3008922067736376 0.48530688881859513 0.0
0.9188361497898574 0.60882014687968 0.0
0.6143779392793272 0.08655515860685746 0.0
0.3965209470690729 0.9213404154712403 0.0
0.08430263479807343 0.3884497902299298 0.0
0.6649239698932156 0.9200523040379757 0.0
0.08223167261565568 0.6637031560203771 0.0
0.9201545542315693 0.33959730630582124 0.0
0.3392096101227417 0.08201547264340311 0.0
0.8226844736997658 0.437994580254239 0.0
0.5676274486621234 0.8173366113294547 0.0
0.43667703003324365 0.1780073531837473 0.0
0.17932925958707477 0.5659059698385627 0.0
0.4345604907547311 0.4591352021887699 0.0
0.8196734474478091 0.5708688171585445 0.0
0.5692701748230757 0.18253678435358692 0.0
0.43084092837213367 0.8198989418654896 0.0
0.1819967167405727 0.43262173497139733 0.0
0.7721253352310314 0.6690583016535797 0.0
0.6690516367750158 0.22675097073024247 0.0
0.3319395814562607 0.7768933391544471 0.0
0.22717070791181268 0.3328194512506689 0.0
0.9295871797376318 0.685684233131585 0.0
0.6858955440642185 0.07341906208487918 0.0
0.3135372865039712 0.9275108791459405 0.0
0.07496170125820534 0.3132547879854161 0.0
0.5622801430781155 0.7414149466239871 0.0
0.6029106839073253 0.4202104295533272 0.0
0.3763413368403345 0.49983332943201864 0.0
0.7351032321199951 0.45999597157425504 0.0
0.45670983685637956 0.2636660660010233 0.0
0.2676819401341428 0.5436126904114716 0.0
0.5880212602002982 0.6154657472401341 0.0
0.41907506522546645 0.3881833978874053 0.0
0.5728148273604913 0.5429803297517323 0.0
0.549200728778004 0.449790163216141 0.0
0.9348692741068957 0.4977944210548268 0.0
0.49886811446175655 0.06695924951959334 0.0
0.5027639027272446 0.9332387551700482 0.0
0.0670928246385221 0.5035054001605698 0.0
0.8462831072457154 0.4995262635068312 0.0
0.49822403993193864 0.15479469970036705 0.0
0.49952701589091036 0.8429311232586829 0.0
0.15516712573074748 0.5042171804128046 0.0
0.8454993299459469 0.6989372955747998 0.0
0.6989263813056449 0.15663133262320453 0.0
0.30191227624935296 0.8452177340550235 0.0
0.15718822736295676 0.3025580809721702 0.0
0.7721507394507099 0.8387666791173229 0.0
0.8361900571232578 0.23002041533861425 0.0
0.16596276910090538 0.7732504748215554 0.0
0.22882076121826983 0.16562534818228367 0.0
0.7627106459673219 0.32846497430303223 0.0
0.23859452162514005 0.6756120022164277 0.0
0.3271627401468224 0.238771583236941 0.0
0.6402586873693314 0.3024797125805518 0.0
[...]
POINT_DATA 2209
SCALARS Psi double
LOOKUP_TABLE default
0.0
0.0
0.0
0.0
0.0
0.0
0.0
0.0
0.0
0.0
0.0
0.0
0.0
0.0
0.0
0.0
0.0
0.0
0.0
0.0
0.0
0.0
0.0
0.0
0.0
0.0
0.0
0.0
0.0
0.0
0.0
0.0
0.0
0.0
0.0
0.0
0.0
0.0
0.0
0.0
0.0
0.0
0.0
0.0
0.0
0.0
0.0
0.0
0.0
0.0
0.0
0.0
0.0
0.0
0.0
0.0
0.0
0.0
0.0
0.0
0.0
0.0
0.0
0.0
0.0
0.0
0.0
0.0
0.0
0.0
0.0
0.0
0.0
0.0
0.0
0.0
0.0
0.0
0.0
0.0
0.0
0.0
0.0
0.0
0.0
0.0
0.0
0.0
0.0
0.0
0.0
0.0
0.0
0.0
0.0
0.0
0.0
0.0
0.0
0.0
0.0
0.0
0.0
0.0
0.0
0.0
0.0
0.0
0.0
0.0
0.0
0.0
0.0
0.0
0.0
0.0
0.0
0.0
0.0
0.0
0.0
0.0
0.0
0.0
0.0
0.0
0.0
0.0
0.0
0.0
0.0
0.0
0.0
0.0
0.0
0.0
0.0
0.0
0.0
0.0
0.0
0.0
0.0
0.0
0.0
0.0
0.0
0.0
0.0
0.0
0.0
0.0
0.0
0.0
0.0
0.0
0.0
0.0
0.0
0.0
-0.047655332087074266
-0.08245662423073616
-0.011191870694285216
-0.05102794870853302
-0.010823704118470494
-0.028684386154739967
-0.009690541374616665
-0.08547116269873382
-0.019341457668698235
-0.06637828466357128
-0.0014977112761640817
-0.03726191908525822
-0.0018802444983120818
-0.0602595014515655
-0.024995898068838784
-0.06573184085832107
-0.02708343931747821
-0.03535949029465589
-0.0040380206649721605
-0.06630194241204149
-0.00589912556886499
-0.08764534382419256
-0.006051798452366182
-0.018695845953961992
-0.004223444762163903
-0.03265108080195211
-0.08443072665973961
-0.018564517526975688
-0.03921846326349486
-0.01136756461171663
-0.0027841150407428264
-0.06954684325773496
-0.005902983599887992
-0.029436420000396903
-0.0011174827027940297
-0.050240679317978945
-0.0015754120527371677
-0.07223281003500946
-0.016524312819422342
-0.00150788401131617
-0.0016268654896973071
-0.055955339494065594
-0.010970487199602695
-0.07163319442366406
-0.015194534307323935
-0.06608306124162777
-0.04077059077393256
-0.00015817542371701456
-0.027883161831739476
-0.00027868638668255473
-0.015737343413930117
-0.030774616131158675
-0.009621037225392894
-0.00452290546467324
-0.0022273893470452773
-0.070836513384171
-0.007102807942651124
-0.07220323415598202
-0.004559326259320623
-0.05030617837444836
-0.005249166233241278
-0.08859407555089499
-0.0056875575827240905
-0.03360608720755289
-0.005165744157834658
-0.046731901420515115
-0.031596419233851425
-0.04959418584898798
-0.09357438367818376
-0.02009964683311502
-0.0801741947530369
-0.05403418637746186
-0.017688352579962586
-0.028623137860568457
-0.00036169667302249093
-0.03960472838379642
-0.0005406060916641266
-0.05435146529913161
-0.015390759985399557
-0.0003202978077571178
-0.0004854809141900183
-0.043629895442293905
-0.07859679184644992
-0.017454247879269285
-0.02745965902306244
-0.009477806859931269
-0.0014190765637809334
-0.05409354723631503
-0.002306467361401377
-0.060116372022675016
-0.006612399575836574
-0.0013221714371749078
-0.0011424967919439117
-0.013005045834210785
-0.08950651811057278
-0.006124051225555367
-0.017646382221195463
-0.03622022797329055
-0.030360593582625266
-0.0064047978402818435
-0.07742273856160961
-0.010888323381569951
-0.06330169269784777
-0.007521323632631325
-0.06291544110394433
-0.009293380246836487
-0.01191677799509329
-0.0007957509879927973
-0.047214264051678376
-0.0012253324607885245
-0.09053623278030523
-0.03209720493468518
-0.037326852776149735
-0.02767705864855553
-0.012902126536389386
-0.029013326956991922
-0.07293145874947429
-0.02545210549823045
-0.0571816536054686
-0.038366814004011006
-0.0029082085058571064
-0.0010433670622251522
-0.051313917193852955
-0.002635207478137652
-0.015184466730226007
-0.004934962677389154
-0.08151458394609466
-0.011320404651736437
-0.045146347891565054
-0.0032354434589996197
-0.059585958555999935
-0.004352776579775855
-0.07888780492915957
-0.002311090645417162
-0.02895059042656789
-0.0025215064123249985
-0.010133304693361685
-0.03639607120791384
-0.008153044163383765
-0.014708129144367447
-0.06256855270815193
-0.015926879909285603
-0.05568964650217591
-0.0015441311074971555
-0.004446690040972208
-0.001053702920767764
-0.05251222339200526
-0.07489762551294914
-0.017474215190271335
-1.5554435040826148e-05
-0.024356176954935103
1.940655219405856e-06
-0.057629386069541655
-0.0036808683725042205
-0.0008190922833846094
-0.04682757608304848
-0.0016671724363216073
-0.014826214791680987
-0.00035808835789906586
-0.038909561927836255
-0.000515246643355706
-0.046728913288565946
-0.006440903462556385
-0.0003160283910440727
-0.0004298752963611085
-0.05605648875410281
-0.0019918064221287465
-0.04815489911414731
-0.0025405731150637025
-0.08469586440231584
-0.003911258135496221
-0.02071207595701483
-0.0034401762224933984
-0.0725112239943351
-0.0480924793401237
-0.02445558046542522
-0.04157376123759054
-0.017124067403917947
-0.0887953939491785
-0.02215903134258531
-0.06282279507864669
-0.011743450538928986
-0.019181976197313485
-0.019705596563905907
-6.717583819908344e-05
-0.03006973503045941
-0.00012849272651898076
-0.04056785619528008
-0.011027645158448519
-8.045865741747576e-05
-0.00015884556027226122
-0.07751254893449194
-0.02274201238411727
-0.015287275254713994
-0.04115248776861593
-0.07926452850307932
-0.021251864031672146
-0.0036457857017644555
-0.07069005623914618
-0.006252975064464452
-0.08248047199121984
-0.00685015643192999
-0.04664635931853948
-0.007037004183596339
-0.09151570384139184
-0.0470964423210613
-0.007574686702242476
-0.07097628889273722
-0.01074033655302684
-0.04865475662975299
-0.005198692100224378
-0.0004864153970087543
-0.0005630469004636578
-0.0491793172380145
-0.000511361013852265
-0.03497328228045511
-0.0007447652501103882
-0.012475847622834418
-0.007091015967859658
-0.023423242216733486
-0.07127264432343054
-0.07441950253922358
-0.0028888389415973764
-0.04134935292114473
-0.0033298942840209655
-0.015554193802859183
-0.04410024809355579
-0.012350343224148507
-0.004367569384564042
-0.0778362919740846
-0.002746468613552205
-0.01111283244019783
-0.09265838250864623
-0.06431394805119042
-0.09162346202117208
-0.0445449840401898
-0.059864937923028036
-0.0073629710292364816
-0.028250137311831385
-0.00567614976745029
-0.030119916459983076
-0.019055879017842378
-0.020936830793337406
-0.0011440983552554167
-0.000640096335371303
-0.043893914047296284
-0.00216475800472051
-0.0691017583346329
-0.02500061077882322
-0.0011045169449449652
-0.0013758922522853372
-0.007509296485458691
-0.002735104500164302
-0.07282054578451634
-0.007002279965353148
-0.019621923368839177
-0.009577414237606356
-0.025393969800325815
-0.03779692163838965
-0.049862791620525045
-0.027928053224914158
-0.0022854632313552095
-0.06015048049238751
-0.0033140010948665443
-0.005622889628092827
-0.00022937559600249915
-0.029486563690911658
-0.00028618646592318275
-0.002976938171711389
-0.0003134724466603988
-0.03466823847127529
-0.0006213134035632851
-0.024738647019681155
-0.08546571772540239
-0.028332707091256213
-0.03873948750571832
-0.044647395283628544
-0.09091864058227318
-0.04713286842704544
-0.001033583421770306
-0.044108415748047074
-0.001400517897252901
-0.07570416529116618
-0.008045477855274034
-0.05480455678309759
-0.008810855353937577
-0.053217867070395525
-0.00036215819045576066
-0.025411114401791172
-0.0005481133435769652
-0.0543504665162723
-0.019706674070568943
-0.08552387395164149
-0.05753925113044923
-0.029859096338249562
-0.03418410339619049
-0.08947335193361153
-0.025532140885902964
-0.03071045001135208
-0.054994193435070185
-0.034034776367670355
-0.035376717458507456
-0.013215906298814403
-0.01631269102363841
-0.025170947018200843
-0.07122395851941143
-0.08039671590283874
-0.009560756347050487
-9.89076503411273e-05
-0.02955068358705835
-0.00015935323484871964
-0.03804477874349355
-0.005357872958786118
-0.00011460194111045225
-0.00019393624918895584
-0.033195222719471285
-0.04361476707395447
-0.04600778583225473
-0.009625385427092152
-0.014699281598146683
-0.019780589850471247
-0.005008224848969913
-0.08175459821864815
-0.009942944745373503
-0.07814353002110977
-0.01368021925076016
-0.0031568722443799267
-0.0025271540682575413
-0.03553229517229574
-0.0018223213991605735
-0.00036622681512161624
-0.0003322913270268266
-0.0025658788558333206
-0.0004973715596517183
-0.03348080598033963
-0.0008933950276248045
-0.010071031516541951
-0.004261836217039013
-0.08284894830792636
-0.011843794758659165
-0.02287692584827904
-0.008116839800675861
-0.08731638521955477
-0.0045624926841811575
-0.01595301505280857
-0.01074638329338317
-0.06653073321350118
-0.013331400780321002
-0.06422514673832835
-0.015743043483021375
-0.0007860972175817832
-0.0009867424992097509
-0.07401476702082656
-0.03046877932153425
-0.0006830873193224186
-0.04477567670264769
-0.0009622027007726155
-0.022826159330181582
-0.002701891797099396
-0.06457339001567584
-0.004177705871373452
-0.014157855319253747
-6.746415874192128e-06
-0.022806236826008682
-2.7277842052357193e-05
-0.007077820036401364
-0.02605951894501819
-2.1606686239299028e-05
-2.4303039516612145e-06
-0.0759322768567028
-0.05181582018427103
-0.005177749161968726
-0.06333797655253874
-0.00683206941031854
-0.06914645987704252
-0.011268287423986884
-0.001650982600159383
-0.001567510528409136
-0.0813694446812554
-0.015334663541144511
-0.052786578965614166
-0.014213047791671526
-0.008930448434197213
-0.01589878800774129
-0.03308085007507411
-0.02137264842158883
-0.018825530720200986
-0.0072102657611010715
-0.017188902752128945
-0.008764438962240143
-0.0017714509687020107
-0.06072783778000357
-0.0034142917446176565
-0.07656924637503125
-0.039485247799156444
-0.05361276933123927
-0.06446864745133912
-0.06415051690707871
-0.014468809464998112
-0.017762122555011507
-0.032499466626345036
-0.0049832532341963515
-0.07247396586065741
-0.007785861955063118
-0.01110882728416435
-0.0075564636620186875
-0.029554227660165817
-0.09324691975219601
-0.03868430756525078
-0.066319718774122
-0.0056638860152065955
-0.05704835456092654
-0.006786193646985971
-0.0011902396495562008
-0.000371353227392124
-0.032885058094479024
-0.0008649900422575714
-0.06588240486388902
-0.06396930842132996
-0.07026372681105007
-0.031517573016427367
-0.027683507283694852
-0.015192269465694146
-0.03581725849957186
-0.07906752599777114
-0.07990224884913212
-0.08289856388504989
-0.003089313109129256
-0.026366389514156437
-0.003054739980961706
-0.08341061812220621
-0.004036780205441672
-0.03863909588521859
-0.004262639692417513
-0.04790292314340407
-0.002245823687193357
-0.05340343465594665
-0.0029574183957979147
-0.021757750562528842
-0.0011266502608482953
-0.05167010442053892
-0.0016775407698892259
-0.02614047583267597
-0.010841459027082612
-0.02401479265014721
-0.08668582682199313
-0.011336102646390366
-0.05945384889174408
-0.012406017026168139
-0.03913806200434791
-0.020588236709903836
-0.0032233815500097955
-0.00021323813340557097
-0.02640098959278963
-0.00028147156962807923
-0.029509259656833476
-0.029668027284187205
-0.0600644504782098
-0.01354068786004959
-0.0013352130267214198
-0.05344691022079362
-0.001993737796341022
-0.009238619107336763
-0.0438813413139627
-0.0085169193757775
-0.03329225286764694
-0.00021367291507908573
-0.03413334394704859
-0.00034471408473415126
-0.03290420624061236
-0.0019039559654341922
-0.00023206285711527782
-0.00025913234906092727
-0.0007526273396077236
-0.00032185146951887696
-0.030856694781322275
-0.0008901509617212202
-0.005086273248567409
-0.0013010422931311104
-0.05541647222698699
-0.002905878096493617
-0.010671410671832082
2.7898968265347453e-06
-0.012765670419830006
3.638672135649857e-06
-0.07343325459140773
-0.021961253427674
-0.012232723307144689
-0.03296389241585807
-0.060173417018586944
-0.0007035025229264056
-0.02932351615740227
-0.0009647669408707176
-0.030444080439597333
-0.0023020383728808115
-0.00011859912657512924
-0.0001700828020623129
-0.007059808676948916
-0.014465820689052411
-0.02330631583042054
-0.08926076239635677
-0.04176745137323486
-0.06162507061443618
-0.006216949658946029
-0.001718983772711919
-0.0012956126815383915
-0.08680143042117643
-0.09360902461657081
-0.07545503662229074
-0.023451733862823152
-0.0017130638718356572
-0.0019152518781045086
-0.05760121344643715
-0.0007045310815757859
-0.0087021254832764
-0.0008160848489446367
-0.08074301319409233
-0.07656248811018361
-0.017499038767463414
-0.0005595853476468074
-0.04328510973620031
-0.0007992379497330388
-0.043955728874901935
-0.0026460624715133997
-0.001234942998224848
-0.05684768278891863
-0.003720865545996001
-0.03267963104911895
-0.0012239649680252471
-0.00048758191874529393
-0.0003215359189311531
-0.07268387207602167
-0.05372867558458782
-0.07166423627919226
-0.035781319971032934
-0.07598467293524583
-0.006213611471520047
-0.07924641469574631
-0.0031911282521127284
-0.010489857019136434
-0.062478728761809675
-0.03593019261784141
-0.015637468256051057
-0.023718656423192506
-0.09235704671103112
-0.013183944369715223
-0.018046245352197357
-0.009379555737643656
-4.3932947741726785e-05
-2.9578107564497447e-05
-6.662650170709873e-05
-0.02820639913608194
-0.003953959680483877
-0.025723808029580235
-8.012688608564309e-05
-0.019104535851262525
-0.04648077774389966
-0.014826827397109912
-0.05109912958081542
-0.051677194303023054
-0.014031311074741412
-0.03588844606772004
-0.009911047643156527
-0.06892216224523806
-0.04482885192153469
-0.07280836251822148
-0.0019214294419683641
-0.03507704571455164
-0.0022858964488183097
-0.0873057745843292
-0.06626009750774468
-0.002874278014728002
-0.06465977297389819
-0.0019231021543957437
-0.04748148550198063
-0.0426254058517055
-0.0034704197363622006
-0.0023892157487309046
-0.008044253317868802
-0.02274302933209569
-0.005451758352360829
-0.0830092079990083
-0.0026523365401157515
-0.06372821726358248
-0.0015637647691907738
-0.005788109256278954
-0.02740352405899804
-2.092127465248787e-05
-0.023564822868079434
-6.278654489894396e-05
-0.0033964402020627543
-8.956827722242673e-05
-0.02232176458036527
-0.00012993368793782828
-0.017638052165874826
-0.017739221347646935
-0.06001701235957847
-0.005125763795010483
-7.559611400783057e-05
-0.02368978825739208
-0.00011605794868493712
-0.0288516983572109
-0.002634824834848297
-7.28791736649302e-05
-0.00012130742490278777
-0.054429385715216494
-0.042581061211360564
-0.0013645169142072384
-0.049079588809238205
-0.0018421302685156392
-0.011670512824934457
-0.0035575242108129234
-0.07624849026831751
-0.008145482587252216
-0.06263409751072888
-0.0037869087704474587
-0.05362294632209414
-0.004636307978998467
-0.007980013614389327
-0.033222688709352216
-0.006870055947023797
-0.045468236978060836
-0.08722963532525782
-0.0867603815312269
-0.01821741912521756
-0.037282775418745265
-0.0120579743163207
-0.0401157785603185
-0.017279052803128747
-6.851457624905084e-05
-0.00014523313195891657
-0.03769449470530925
-0.003339110147537546
-0.062760651916917
-0.0046801897587216085
-0.07908191109183474
-0.004435710305026727
-0.04437108772253972
-0.004862491451551266
-0.025765811092415502
-0.07198835630172758
-0.05187238530173645
-0.026520282788825664
-0.025725339175867785
-0.0881287942789075
-0.00047175249405815065
-0.00010392733359444476
-0.01917739303278555
-0.00021464613988049237
-0.04701889766383806
-0.08506462530539016
-0.02281893421198716
-0.041858430379972784
-0.02639810392612226
-0.00531059688640444
3.99066962496472e-07
-0.008251540399742187
-0.018644163045180108
-0.01628889526610994
3.346937240084248e-06
4.774863879072003e-06
8.519844236868168e-07
-0.05851283391313777
-0.004633309772934487
-0.004997442328493425
-0.025641629443177865
-0.02022700691406216
-0.004338563579371862
-0.003942030383667997
-0.09094777802133501
-0.045127087640900974
-0.012680471960333435
-0.04411925902687829
-0.010710710462554235
-0.03355099189130426
-0.0888660475232797
-0.039649033648477196
-0.0021952940551866777
-0.05628213251153271
-0.003003281419850546
-0.08287711230163582
-0.009437389594244429
-0.06993259581979996
-0.012559585481202016
-0.08755158139595977
-0.045620354946800244
-0.005719971714451142
-0.06768839955405549
-0.00798291728606497
-0.04805381510253742
-0.01531941160246859
-0.0001752894109333432
-0.0002979414271980869
-0.07917424590502384
-0.02075487757310215
-0.002351902236811242
-0.0023742914127985724
-0.06526353543090323
-0.025907234407545814
-0.05495497487303303
-0.09083272374292814
-0.01947293065414123
-0.011707335865261804
-0.02112736123976956
-0.06548072428130124
-0.035524028343644355
-0.015129402671951108
-0.008651283594362666
-0.027136297439496852
-0.006433905349872944
-0.03800451672808775
-0.006077176745050668
-0.017327234665416205
-0.0037817706148669224
-0.007171681430066217
-0.06798553746729231
-0.08343283219400956
-0.031913004681800604
-0.003395695930294726
-0.003479334666379605
-0.01939488504042705
-0.000272840076033605
-0.03786516126150846
-0.00041126346467956277
-0.04855853673303912
-0.008761444814613318
-0.0002709453826373057
-0.00040105732189378205
-0.04422047502547911
-0.020136017653138286
-0.06122854254715462
-0.014338228241801414
-0.005454587430414431
-0.013702074925735903
-0.027493826423849135
-0.0009469386278717985
-0.00023555619567850199
-0.0001938515427493967
-0.0830685971987862
-0.01771550350495414
-0.031880412281452546
-0.00010022556134199713
-0.00017305991565341142
-0.07472889547445194
-0.005773102575952796
-0.05142783196765008
-0.006464801526074295
-0.051716038736275546
-0.027378030675479118
-0.0037959725469416824
-0.069571445406428
-0.005977989920191731
-0.08035715998030077
-0.004089916274055406
-0.013441471697424004
-0.0028999082345924953
-0.09226327056006825
-0.03858763966240931
-0.09123419488721089
-0.05962928031935178
-0.0005235569369116951
-0.02159393585934162
-0.0007371491827937078
-0.017264658108518557
-0.006758302178023136
-0.05210151561639492
-0.00939679683907285
-1.2798822941942152e-05
-0.023233345286004816
-3.285122783473176e-05
-0.023002254251072194
-0.0036182208419573364
-4.399070011417e-06
-2.1137718494423203e-05
-0.08049332308971674
-0.013932020333433904
-0.007049462877738494
-0.020974388243560994
-0.05772602072353941
-0.0009375413815404172
-0.036901233894614076
-0.0012607415125083325
-0.02324891357742074
-0.0010118743861404222
-0.0019168729892157094
-0.05558870071720141
-0.04877050006436232
-0.008807042072987678
-0.04909813067627632
-0.008787333632230776
-0.0009298906747037571
-0.00012688523070299794
-0.022461119274984436
-0.00023434608116853906
-0.07807979242984697
-0.0721965010282274
-0.07533054248173056
-0.016962362902440763
-0.0024675956574525676
-0.06459915707828935
-0.00406749862091789
-0.058127584053591516
-0.000985802892664641
-0.0069292536673910225
-0.0009683054160978511
-0.031248279135411155
-0.00012351151284979256
-0.03124031275683084
-0.00022154692736561037
-0.04041001321969136
-0.03899269639819382
-0.00046484031177016616
-0.03901451395045363
-0.0006810266689546658
-0.09309351294149289
-0.02535251722658575
-0.004878354736770968
-0.008425929694799742
-0.04851665437090671
-0.0003125784414369801
-0.029018421493952753
-0.0004880841975517712
-0.008670428988305065
-0.005311099120551293
-0.019896405182039
-0.026538789241048757
-0.01353595401650743
-0.0006776461599016084
-0.04707561967550182
-0.0011577460576033497
-0.017684495882331057
-0.0006235360922214993
-4.5791617352799025e-05
-6.0737996465730335e-05
-0.0068397748253441575
-0.012816904240587299
-0.04606910743857679
-0.014449403414654633
-0.024554672133574436
-0.07286361634287661
-0.027446152553332187
-0.03933056982545749
-0.007519529906260746
-0.011626750477814467
-0.0012130570175133467
-9.268948275515499e-05
-0.020185825463302588
-0.00014026735161001085
-0.016701058382097216
-0.01774405679140829
-0.007981423732495226
-0.02089279585634902
-0.04724626240915961
-0.02186042560350032
-0.00017813451416212099
-0.00030886432969776687
-0.0215725387695248
-0.09074447124899727
-0.007138506428303177
-0.002307910202299306
-0.06773988792884247
-0.005445090570776632
-0.06300425883437599
-0.05499665417690901
-0.023619167500590343
-0.07473603635894639
-0.012776497072888178
-0.05504412824910433
-0.012751427343121697
-0.007585377641474947
-0.06714132577405478
-0.010004442550764865
-0.05043068056018135
-0.026903733803644563
-0.05932893121062852
-0.0004682362730075553
-0.00017927880298587972
-0.02323872701767297
-0.0004555600361816571
-0.010823039236455653
-0.0039607450608379864
-0.08078422495048193
-0.010019018361820328