# vtk DataFile Version 1.0
2D Simulation C++
ASCII
DATASET UNSTRUCTURED_GRID
FIELD FieldData 1
NODES 1 2 int
2209 4256

POINTS 2209 double
0.0 0.0 0.0
0.0 1.0 0.0
1.0 1.0 0.0
1.0 0.0 0.0
0.0 0.02500000037252903 0.0
0.0 0.05000000074505806 0.0
0.0 0.07500000298023224 0.0
0.0 0.10000000149011612 0.0
0.0 0.125 0.0
0.0 0.15000000596046448 0.0
0.0 0.17499999701976776 0.0
0.0 0.20000000298023224 0.0
0.0 0.22499999403953552 0.0
0.0 0.25 0.0
0.0 0.2750000059604645 0.0
0.0 0.30000001192092896 0.0
0.0 0.32499998807907104 0.0
0.0 0.3499999940395355 0.0
0.0 0.375 0.0
0.0 0.4000000059604645 0.0
0.0 0.42500001192092896 0.0
0.0 0.44999998807907104 0.0
0.0 0.4749999940395355 0.0
0.0 0.5 0.0
0.0 0.5249999761581421 0.0
0.0 0.550000011920929 0.0
0.0 0.574999988079071 0.0
0.0 0.6000000238418579 0.0
0.0 0.625 0.0
0.0 0.6499999761581421 0.0
0.0 0.675000011920929 0.0
0.0 0.699999988079071 0.0
0.0 0.7250000238418579 0.0
0.0 0.75 0.0
0.0 0.7749999761581421 0.0
0.0 0.800000011920929 0.0
0.0 0.824999988079071 0.0
0.0 0.8500000238418579 0.0
0.0 0.875 0.0
0.0 0.8999999761581421 0.0
0.0 0.925000011920929 0.0
0.0 0.949999988079071 0.0
0.0 0.9750000238418579 0.0
0.02500000037252903 1.0 0.0
0.05000000074505806 1.0 0.0
0.07500000298023224 1.0 0.0
0.10000000149011612 1.0 0.0
0.125 1.0 0.0
0.15000000596046448 1.0 0.0
0.17499999701976776 1.0 0.0
0.20000000298023224 1.0 0.0
0.22499999403953552 1.0 0.0
0.25 1.0 0.0
0.2750000059604645 1.0 0.0
0.30000001192092896 1.0 0.0
0.32499998807907104 1.0 0.0
0.3499999940395355 1.0 0.0
0.375 1.0 0.0
0.4000000059604645 1.0 0.0
0.42500001192092896 1.0 0.0
0.44999998807907104 1.0 0.0
0.4749999940395355 1.0 0.0
0.5 1.0 0.0
0.5249999761581421 1.0 0.0
0.550000011920929 1.0 0.0
0.574999988079071 1.0 0.0
0.6000000238418579 1.0 0.0
0.625 1.0 0.0
0.6499999761581421 1.0 0.0
0.675000011920929 1.0 0.0
0.699999988079071 1.0 0.0
0.7250000238418579 1.0 0.0
0.75 1.0 0.0
0.7749999761581421 1.0 0.0
0.800000011920929 1.0 0.0
0.824999988079071 1.0 0.0
0.8500000238418579 1.0 0.0
0.875 1.0 0.0
0.8999999761581421 1.0 0.0
0.925000011920929 1.0 0.0
0.949999988079071 1.0 0.0
0.9750000238418579 1.0 0.0
1.0 0.9750000238418579 0.0
1.0 0.949999988079071 0.0
1.0 0.925000011920929 0.0
1.0 0.8999999761581421 0.0
1.0 0.875 0.0
1.0 0.8500000238418579 0.0
1.0 0.824999988079071 0.0
1.0 0.800000011920929 0.0
1.0 0.7749999761581421 0.0
1.0 0.75 0.0
1.0 0.7250000238418579 0.0
1.0 0.699999988079071 0.0
1.0 0.675000011920929 0.0
1.0 0.6499999761581421 0.0
1.0 0.625 0.0
1.0 0.6000000238418579 0.0
1.0 0.574999988079071 0.0
1.0 0.550000011920929 0.0
1.0 0.5249999761581421 0.0
1.0 0.5 0.0
1.0 0.4749999940395355 0.0
1.0 0.44999998807907104 0.0
1.0 0.42500001192092896 0.0
1.0 0.4000000059604645 0.0
1.0 0.375 0.0
1.0 0.3499999940395355 0.0
1.0 0.32499998807907104 0.0
1.0 0.30000001192092896 0.0
1.0 0.2750000059604645 0.0
1.0 0.25 0.0
1.0 0.22499999403953552 0.0
1.0 0.20000000298023224 0.0
1.0 0.17499999701976776 0.0
1.0 0.15000000596046448 0.0
1.0 0.125 0.0
1.0 0.10000000149011612 0.0
1.0 0.07500000298023224 0.0
1.0 0.05000000074505806 0.0
1.0 0.02500000037252903 0.0
0.9750000238418579 0.0 0.0
0.949999988079071 0.0 0.0
0.925000011920929 0.0 0.0
0.8999999761581421 0.0 0.0
0.875 0.0 0.0
0.8500000238418579 0.0 0.0
0.824999988079071 0.0 0.0
0.800000011920929 0.0 0.0
0.7749999761581421 0.0 0.0
0.75 0.0 0.0
0.7250000238418579 0.0 0.0
0.699999988079071 0.0 0.0
0.675000011920929 0.0 0.0
0.6499999761581421 0.0 0.0
0.625 0.0 0.0
0.6000000238418579 0.0 0.0
0.574999988079071 0.0 0.0
0.550000011920929 0.0 0.0
0.5249999761581421 0.0 0.0
0.5 0.0 0.0
0.4749999940395355 0.0 0.0
0.44999998807907104 0.0 0.0
0.42500001192092896 0.0 0.0
0.4000000059604645 0.0 0.0
0.375 0.0 0.0
0.3499999940395355 0.0 0.0
0.32499998807907104 0.0 0.0
0.30000001192092896 0.0 0.0
0.2750000059604645 0.0 0.0
0.25 0.0 0.0
0.22499999403953552 0.0 0.0
0.20000000298023224 0.0 0.0
0.17499999701976776 0.0 0.0
0.15000000596046448 0.0 0.0
0.125 0.0 0.0
0.10000000149011612 0.0 0.0
0.07500000298023224 0.0 0.0
0.05000000074505806 0.0 0.0
0.02500000037252903 0.0 0.0
0.506346874079229 0.5032568818595714 0.0
0.7121557003529383 0.7028240941491761 0.0
0.7027432637261354 0.29536501574721724 0.0
0.2977590224485146 0.7066259575107612 0.0
0.29495223260099107 0.2958523158735825 0.0
0.7760962267285301 0.5058545092615234 0.0
0.5026154013880264 0.22227825217962285 0.0
0.4926358564574557 0.7778746515230665 0.0
0.22343470521240377 0.49675814614053176 0.0
0.8286910200030284 0.8209146000792521 0.0
0.8203935377651848 0.17140361148865726 0.0
0.1809578705294793 0.8298562563170734 0.0
0.17118075834254853 0.18020970722704227 0.0
0.643603460643486 0.5659601400200842 0.0
0.5644156581391044 0.36696959840625454 0.0
0.44230739376999323 0.6350971027522431 0.0
0.36275649233959023 0.42805387923604316 0.0
0.8448862064665501 0.6441014703359753 0.0
0.6446327983167247 0.15590777659696706 0.0
0.35099506135994996 0.842389030167275 0.0
0.15573406226693828 0.3552725540972104 0.0
0.649051430456641 0.8415766069517847 0.0
0.8421146258177816 0.35844078829174475 0.0
0.158926936907466 0.6432601975060028 0.0
0.35876176258442277 0.1575280200454734 0.0
0.6739039100427707 0.44924554564398683 0.0
0.5840415213697965 0.6765786265366391 0.0
0.44738910442457475 0.32072090628927913 0.0
0.32864843310193725 0.5564413873603511 0.0
0.8825700634519695 0.5317483797407478 0.0
0.5315931781647166 0.11367596547436043 0.0
0.4676841161890607 0.8862332816896777 0.0
0.11335846170618152 0.46946916800788274 0.0
0.8977936761458447 0.7422062732083847 0.0
0.7420525719565952 0.10335132124030726 0.0
0.2594646353387924 0.8977590081997722 0.0
0.10395212463583062 0.25876321256922374 0.0
0.745659413086005 0.8832400994179003 0.0
0.1190733181275693 0.7445107576436056 0.0
0.8819424189988148 0.25703001681486326 0.0
0.2562517395192805 0.11870462719237745 0.0
0.741635451793331 0.6043881456384778 0.0
0.6097496272705735 0.2512454782030182 0.0
0.3959483272641413 0.7483250166554051 0.0
0.25473568059388063 0.3946065563978778 0.0
0.5237314553425736 0.5920910179665959 0.0
0.898876752234325 0.8861517214322869 0.0
0.8852719075246499 0.1012880210558194 0.0
0.11620113288727466 0.9003819338072301 0.0
0.10103789952503076 0.11567056919658555 0.0
0.7622301015696363 0.39301321612826506 0.0
0.2394757823765068 0.610318966323777 0.0
0.3911790761299706 0.23624955646223678 0.0
0.8976110405346639 0.437836524673985 0.0
0.4369612493057819 0.10287144946351538 0.0
0.5652783165356583 0.8948062442819686 0.0
0.1030555537170287 0.5639530255249965 0.0
0.7886127481592045 0.7426706590718141 0.0
0.7425406545462264 0.2121288408086093 0.0
0.25818609661926895 0.789380201328914 0.0
0.211919486331015 0.2573811975385887 0.0
0.721209490669104 0.8005092390980425 0.0
0.7944674886226188 0.28400920804282737 0.0
0.2065762352110531 0.7178995469084415 0.0
0.28820172227386814 0.20158892732738667 0.0
0.5945841541101851 0.4952902616423907 0.0
0.4912399365233528 0.41255709784987377 0.0
0.4259075345914498 0.5468406846083348 0.0
0.6330207218677858 0.7582547846738209 0.0
0.6525636823396291 0.35460845007501446 0.0
0.49635944439942287 0.6922014877576927 0.0
0.35504835791920986 0.6428486010245018 0.0
0.3501058795461538 0.3478401206145264 0.0
0.9166776580225166 0.8163283019608699 0.0
0.8154753827634309 0.08446267593374038 0.0
0.18561696534350455 0.9167797673637123 0.0
0.0846661018660058 0.1851680203353952 0.0
0.8282109986701567 0.9106068697903857 0.0
0.09111987179266615 0.828874561636743 0.0
0.9099143893428274 0.1725303133417357 0.0
0.1727706170531032 0.09093282455143545 0.0
0.6988092049737269 0.5188949024520783 0.0
0.6492761060123634 0.6491391848247644 0.0
0.5133608763870854 0.30348064066278435 0.0
0.30043209853436864 0.48443412705969047 0.0
0.9176459911086742 0.6080581005948364 0.0
0.61339550742155 0.08607037471521015 0.0
0.3958321313148192 0.920620057359772 0.0
0.08338773955589784 0.38705869756531686 0.0
0.6645890506100415 0.9190053134572224 0.0
0.08198791416439745 0.6627094176382039 0.0
0.9194537721084143 0.33898105700284037 0.0
0.33885737513427816 0.08178467351246708 0.0
0.8218835887370992 0.4375388075414599 0.0
0.5674749945912757 0.8163229013252792 0.0
0.4355752148647354 0.17769963560730076 0.0
0.17885340678153225 0.564530161199969 0.0
0.4340959882550473 0.4584309543651567 0.0
0.8188760057732994 0.5710159536547315 0.0
0.5687596293524533 0.18138740690673122 0.0
0.4308538579779554 0.8187594774375914 0.0
0.181549116540415 0.4316103991024562 0.0
0.7716293707452465 0.6682281322837892 0.0
0.6689962413879299 0.22615796612714534 0.0
0.3320081758118229 0.7759809320391776 0.0
0.22670091053179803 0.3312633438998641 0.0
0.9290513537231546 0.6849972625403873 0.0
0.6852686043497115 0.0724403283870167 0.0
0.3131178462470005 0.9268282975878913 0.0
0.07436480269795505 0.31212428854252716 0.0
0.5619722511006402 0.7404483288643934 0.0
0.6030466796126616 0.4196218406907054 0.0
0.37577775747346415 0.49871554108472954 0.0
0.7344222578837679 0.45949248761732236 0.0
0.4561059429693322 0.2629251889460061 0.0
0.2674215072067014 0.542571238164961 0.0
0.5878858565948231 0.6145603953036332 0.0
0.41871034178916505 0.38684055489059 0.0
0.572431366430376 0.5419319847771232 0.0
0.5485782424256896 0.44884008726533947 0.0
0.934231466143758 0.49685281972328665 0.0
0.4983716168624363 0.06674419030263548 0.0
0.5023747382278483 0.9321034470891523 0.0
0.0665070954670162 0.5029768128391576 0.0
0.8453189175362521 0.4992285578908323 0.0
0.4973661365327626 0.15397301268421035 0.0
0.49949829766767945 0.8423365522575552 0.0
0.1549287758835742 0.5030438099835228 0.0
0.8446480408726609 0.6984385462240051 0.0
0.6981285413120097 0.15621077793482016 0.0
0.3015331772276635 0.8444259472795171 0.0
0.1563758753014502 0.3014768878302406 0.0
0.7715749543420247 0.8375393833511604 0.0
0.8353641629787244 0.229394722063522 0.0
0.1657272679132677 0.7721062849705529 0.0
0.22848081285854843 0.16450227624052308 0.0
0.7622784992727033 0.32774013708274674 0.0
0.2387469959771249 0.6743875924040053 0.0
0.32621600917012916 0.2373016468465921 0.0
0.6395507666276615 0.30193734664994754 0.0
[...]
POINT_DATA 2209
SCALARS Psi double
LOOKUP_TABLE default
0.0
0.0
0.0
0.0
0.0
0.0
0.0
0.0
0.0
0.0
0.0
0.0
0.0
0.0
0.0
0.0
0.0
0.0
0.0
0.0
0.0
0.0
0.0
0.0
0.0
0.0
0.0
0.0
0.0
0.0
0.0
0.0
0.0
0.0
0.0
0.0
0.0
0.0
0.0
0.0
0.0
0.0
0.0
0.0
0.0
0.0
0.0
0.0
0.0
0.0
0.0
0.0
0.0
0.0
0.0
0.0
0.0
0.0
0.0
0.0
0.0
0.0
0.0
0.0
0.0
0.0
0.0
0.0
0.0
0.0
0.0
0.0
0.0
0.0
0.0
0.0
0.0
0.0
0.0
0.0
0.0
0.0
0.0
0.0
0.0
0.0
0.0
0.0
0.0
0.0
0.0
0.0
0.0
0.0
0.0
0.0
0.0
0.0
0.0
0.0
0.0
0.0
0.0
0.0
0.0
0.0
0.0
0.0
0.0
0.0
0.0
0.0
0.0
0.0
0.0
0.0
0.0
0.0
0.0
0.0
0.0
0.0
0.0
0.0
0.0
0.0
0.0
0.0
0.0
0.0
0.0
0.0
0.0
0.0
0.0
0.0
0.0
0.0
0.0
0.0
0.0
0.0
0.0
0.0
0.0
0.0
0.0
0.0
0.0
0.0
0.0
0.0
0.0
0.0
0.0
0.0
0.0
0.0
0.0
0.0
-0.06136179661771217
-0.09096123969008407
-0.014194563631553362
-0.058042215942802594
-0.014226492087183313
-0.03571333158410687
-0.012562105486305665
-0.09329240324907921
-0.024789620174776195
-0.06859856409441677
-0.0015277559201142613
-0.03819166980010227
-0.0023203720183625856
-0.07332655466634706
-0.033097590323357795
-0.07876618777700228
-0.03582720436651686
-0.04043066696471429
-0.004839671710975708
-0.06964509502608417
-0.007725603755480863
-0.09152676039593377
-0.007493029043720076
-0.02184328792535546
-0.005355099037278234
-0.042092910695729444
-0.09667614407789782
-0.024760773503603676
-0.04933345883071453
-0.014029632058135472
-0.0034138650786219634
-0.07228226573707093
-0.007555731682115517
-0.0318282764931881
-0.0011640935702220921
-0.051020129356823936
-0.0019903948961438435
-0.07385542651842161
-0.017629719044393914
-0.001612741576126644
-0.001971773061182614
-0.06563911947792168
-0.01406020638358105
-0.07980867578214654
-0.019984363747694512
-0.08066741533388033
-0.041447665296072855
-8.951082617941307e-05
-0.02781805166697476
-0.00030988024053047467
-0.02008827042281207
-0.03727149853688469
-0.012580813934597179
-0.0056808531294490995
-0.002755891663602235
-0.07323998740584883
-0.008714434157498794
-0.07749400570235089
-0.005368154618763185
-0.05368318178631258
-0.006758608534561114
-0.09310009769325786
-0.00686328665059616
-0.03735414353335395
-0.006598871891650708
-0.05966816350200486
-0.04191626136728186
-0.06277649390255548
-0.10145071705418575
-0.02615008079428338
-0.09208237188825355
-0.06460529965642361
-0.02356422253010753
-0.02989321200520026
-0.00030807410706386307
-0.03977166608432075
-0.000648255854725361
-0.055046186104075794
-0.015368946846186839
-0.0002467464011065878
-0.0005613367941858773
-0.05429146729905776
-0.09062077575114061
-0.023092167138107036
-0.03560722030434209
-0.011317697321297426
-0.0016516631855988929
-0.05534952646657367
-0.002980262730252128
-0.06153017831118263
-0.007432879324846274
-0.0015395569003837277
-0.0014035750255094815
-0.016464973324006524
-0.09530383798324006
-0.00785714623439693
-0.021776412692591347
-0.047583328426605453
-0.03644483806303685
-0.008015752061333857
-0.08280047929315729
-0.014224003946139659
-0.0710763535108541
-0.009322229079798235
-0.06851543176882366
-0.012221450035256935
-0.013406138100944223
-0.0008626134343799817
-0.048143296730185706
-0.0015601962941119356
-0.10015673248145814
-0.04204228399686947
-0.04824686301351907
-0.03517701823428402
-0.01701954302234221
-0.03660510702323619
-0.08682747006675445
-0.033891564951906296
-0.07140551571534247
-0.05022340264477559
-0.0035854074193627946
-0.0012651996958663297
-0.052874298681380924
-0.003312917527442675
-0.0189630397848905
-0.0062088710455201306
-0.0861455652119549
-0.01435126644895876
-0.049708277310788945
-0.003765653028012743
-0.062063192513221406
-0.005625733048232071
-0.08141819099613372
-0.0025243711450505563
-0.030540769105859938
-0.0031551884289980348
-0.012725104951668368
-0.042070880514869215
-0.010564799119632146
-0.019066530986759037
-0.07184704704488712
-0.02105026942354611
-0.057119747430515934
-0.0018817529389014175
-0.00518411337688286
-0.001291104173274088
-0.06464631069800017
-0.08561440182046151
-0.017263656508721296
-1.0951011675993196e-05
-0.024835522164440387
1.798465410470182e-05
-0.0720514232854062
-0.004489698657844512
-0.0009622996427429577
-0.047915997946817154
-0.002165374451331017
-0.016108891653030387
-0.00033162358108379487
-0.03917623894213641
-0.0006343413216776373
-0.04749944091081706
-0.006633693575247979
-0.0002807078012427407
-0.000498148185928732
-0.059371890434311035
-0.002151569380645108
-0.04947002798566233
-0.0032022058804614417
-0.0877269146737233
-0.004635492470073019
-0.023192825654316577
-0.00431510431203796
-0.0826404034147742
-0.060338294834383674
-0.032552266734366
-0.050725072523422565
-0.02251243396676529
-0.09870343728003823
-0.029208822710734314
-0.07469911801957135
-0.015261338452994076
-0.024911857784936233
-0.020348939938696152
-2.7527415431575983e-05
-0.03009069371848419
-0.00014043902529438748
-0.04092046249193629
-0.010869056416123641
-3.10203241144366e-05
-0.00017328083628003282
-0.09100473618290524
-0.02941793116285452
-0.020287212755875573
-0.05038246697931031
-0.08814536989069865
-0.025233430560940334
-0.004438847450025008
-0.07391700059364453
-0.008125570389131807
-0.08882028312958715
-0.008381925141129844
-0.051350116348794404
-0.009094200788355765
-0.09820596422014896
-0.054736015630681534
-0.009481611496740346
-0.07672571096561809
-0.014133407027293623
-0.049555577259105435
-0.005561184328259533
-0.0004974874733847147
-0.0006659366257245467
-0.050412004318759154
-0.0004343936472426013
-0.035102282876907205
-0.0008889323433791318
-0.015738276138391384
-0.00914224623337636
-0.028424014273292462
-0.08509704298276465
-0.07789179006858252
-0.0032213511472703555
-0.04340219171183683
-0.004206762458598321
-0.020005149713337108
-0.05203445502317314
-0.01630856758555345
-0.005361511957234799
-0.08067744969931818
-0.0034517889545333242
-0.013181459443315943
-0.09867297296241631
-0.07558357380601864
-0.09663596931373512
-0.057504694417561744
-0.0737048483417062
-0.00909715016258973
-0.032431496671396914
-0.007279841302065519
-0.03987956616386061
-0.02496706841616796
-0.027750307520081854
-0.00142568937596747
-0.0007685832446013336
-0.04490625165791528
-0.0025903353819524905
-0.07061961009911094
-0.025739426222522028
-0.0010888367757346479
-0.0016676603973897783
-0.009403248999062848
-0.0034069775726194595
-0.07570531428013347
-0.00880442401241284
-0.025022495063551906
-0.012517949305216929
-0.03153262760064614
-0.04965627070151324
-0.06355076746483793
-0.03140970504060592
-0.0026219801438331575
-0.06200527485742342
-0.004276635299504081
-0.006319538681215442
-0.00022449475007585635
-0.029970964789494223
-0.00035826247899007203
-0.003501871813109019
-0.000344536350543953
-0.0353500375912816
-0.0007868812960483656
-0.032951039188090565
-0.0972362964588131
-0.03698547409646644
-0.04998292824969786
-0.05649241205383307
-0.10098256811183463
-0.04915069447432087
-0.0010181595977560615
-0.044683786692630977
-0.0017299338072918754
-0.08323501878844254
-0.010010555627779617
-0.060425361898443525
-0.011548104015328055
-0.0541041772223144
-0.00027923833130773793
-0.025439325685703916
-0.0006362950215253248
-0.06616721914800887
-0.02627347869586486
-0.09586672845133766
-0.07204865879192629
-0.039031928954518194
-0.043917554348803886
-0.09706661661696164
-0.03354238472648937
-0.04077128471318768
-0.06842685445090398
-0.0425133106959493
-0.04487525254730614
-0.017369513666871225
-0.021614050388802767
-0.032254049668861376
-0.08438827076790364
-0.09316041366254131
-0.010136075430236913
-7.198445178576118e-05
-0.029805771444015566
-0.00018564419116162592
-0.03869859375312412
-0.00534313220503325
-7.627018359908217e-05
-0.00021670513849751655
-0.04355800235175241
-0.051851121140277234
-0.05663345141222025
-0.012310175621255439
-0.019272232350802394
-0.02420405762296822
-0.00627864470805746
-0.08748645884430245
-0.012771810574838309
-0.0805740454220962
-0.015585400006568748
-0.003746350374215589
-0.00314611304687412
-0.036211811719629
-0.002047908227853805
-0.00041903856155560854
-0.00039250079471564887
-0.003069228089362836
-0.0005619363288790843
-0.03419184193682609
-0.0011497998122976987
-0.012713879302634077
-0.005393425149093807
-0.08712825239767708
-0.014709442737975078
-0.030462615522743753
-0.01025844321459096
-0.0917432273234971
-0.005787549944919594
-0.019205759507497585
-0.013698276524981378
-0.07430108393035789
-0.017556810342891773
-0.06521109237924225
-0.01615733705522794
-0.0007500085922198271
-0.0011705194346387567
-0.08651615621355431
-0.03210328285663778
-0.0006548106682619084
-0.04506403664159332
-0.001192182028243658
-0.026388953536680467
-0.0031825052668601993
-0.06691325433936852
-0.005420055284275987
-0.014513415910944216
1.0992996654613744e-05
-0.022970900236067893
-2.543031534380295e-05
-0.006935920511708701
-0.026500425607386014
-1.8101015221220916e-05
1.3861871266625336e-05
-0.08297197122917248
-0.05796726059716635
-0.006222103930274024
-0.06738054016327441
-0.008930565163970736
-0.07092181322263696
-0.012356887011385683
-0.0018486005318134023
-0.0019152896224764182
-0.09160337564995788
-0.019801079682867796
-0.06161092640023273
-0.018804976950510723
-0.011441345114477813
-0.02059795764495673
-0.04037718548363589
-0.028375706989451705
-0.023622133814463393
-0.009247543752938066
-0.021722040025706935
-0.010624263235110955
-0.0021131995962030627
-0.06261428024717944
-0.004365676495125818
-0.08068071255613891
-0.05128614927145651
-0.06423382030409948
-0.07848592356835359
-0.07326377849207222
-0.01880979823743216
-0.02348426762360423
-0.03796880895478908
-0.0061122330090153274
-0.07684884804142901
-0.01016302810770614
-0.014053638599454667
-0.009780940337218326
-0.03492105564216736
-0.10125614988064359
-0.05029823344902352
-0.07265347238545107
-0.00686375025028842
-0.06123182223959022
-0.008871336691950308
-0.0014942729039585973
-0.0004316221719597481
-0.03373884674509412
-0.0011018619302157538
-0.080359725032541
-0.07839986972998102
-0.08027166771140994
-0.040208270548602563
-0.03560232732143189
-0.020211538745099993
-0.04478280353836811
-0.09248137797523999
-0.09055724327361013
-0.08570993149049722
-0.0035290583291321385
-0.028557609504629176
-0.003813764686266448
-0.08766030469931217
-0.004696139111512756
-0.04153331538761528
-0.005405502575588378
-0.05166330388829557
-0.002484399723762828
-0.05505618742797981
-0.0037731974990552865
-0.02391080945210746
-0.00120570997610807
-0.05262372826269517
-0.0021605219386594708
-0.03300241380539086
-0.014147579959950356
-0.03041412426945354
-0.09811189216405831
-0.014465219652785077
-0.0670897510485923
-0.016332258869990325
-0.04997926841738664
-0.027422346265820227
-0.00375750010844526
-0.0002225529829586214
-0.02693975861875233
-0.00034940058284626564
-0.03913228346692462
-0.039025938423569335
-0.07208126817300645
-0.015580655026167465
-0.0015039633375422679
-0.05471901767409376
-0.002576800300800339
-0.01155773094706763
-0.049629723092153764
-0.011106445896115941
-0.03425194797022831
-0.00014843972037656327
-0.03410183806177717
-0.0003981291992763943
-0.03371402636461653
-0.0020488052617208706
-0.00024780018542264887
-0.0002983125886556704
-0.0009411374647480406
-0.00038045876079006476
-0.031786871367288715
-0.0011157700101255565
-0.006242294279173604
-0.001585886983613648
-0.05694480600962437
-0.0037206916883743913
-0.010681440362186972
4.147472349329305e-06
-0.013230292857010877
5.339848872885965e-06
-0.08223044629810515
-0.0281637969170594
-0.01615958221735285
-0.04068722339391592
-0.06127110705793112
-0.0006352547035012846
-0.029603356347786578
-0.0011552249758978936
-0.03112766766263684
-0.002380677115814577
-0.00010169267365425689
-0.00019472481985335547
-0.00900439011419056
-0.01855089513604411
-0.028843624784743088
-0.0978140879261879
-0.054384334587634496
-0.0631114426587785
-0.007161232013838388
-0.0020543728183375575
-0.0015925827409997526
-0.09356885062892814
-0.09999672095727066
-0.0772937102767442
-0.02464417455742647
-0.0018239332381763127
-0.0023586849779043393
-0.05844288384407555
-0.000712606837967161
-0.009205244093096195
-0.0009798234604465074
-0.08783186821328666
-0.08972436220651143
-0.018937375209381685
-0.0005506484898509599
-0.04372358099775598
-0.0009961209899534865
-0.05675370593659293
-0.0032755002313607146
-0.0015048940863518346
-0.05846635793468367
-0.004535953811282319
-0.03358065952708136
-0.0014624929998586448
-0.0006063397323757337
-0.0003816717794073845
-0.08692180243726706
-0.06682102930366215
-0.08331962714701377
-0.047075177569325166
-0.08536961474927417
-0.007776776170946058
-0.08243553058001377
-0.003989304330490936
-0.0127820224360496
-0.07295515740906403
-0.04702767786809965
-0.020516060085720846
-0.03096833911249313
-0.0998965282166475
-0.017117164508514186
-0.02367320143155444
-0.009796171793957233
-2.0920011146018935e-05
-5.1123477001434365e-06
-6.760385654710092e-05
-0.028817488698941292
-0.0038291670301217693
-0.026068163873511036
-8.669312591981577e-05
-0.024804565958678075
-0.05533734735913184
-0.019683163539985844
-0.06500056947989852
-0.06525824147760859
-0.017915718022465825
-0.04260172807019272
-0.012975992067251864
-0.0805476698901513
-0.05723812066295681
-0.0752973525008597
-0.0020390442458333028
-0.036286091711257275
-0.002841016421265334
-0.0944787394210196
-0.07015257915529927
-0.003227890569820605
-0.06740146050261496
-0.002045363736239179
-0.04955968386322022
-0.043847746979884875
-0.004405340632617555
-0.002979527629194974
-0.010083473314672003
-0.026716730840431843
-0.0069690796341563945
-0.09176820979010027
-0.0033062830155508303
-0.06567258495103044
-0.001923031529107604
-0.006924274666249579
-0.027782193285881315
1.1763383378860551e-05
-0.023419642525293306
-6.08501237736865e-05
-0.0037747828927573016
-8.152438844474634e-05
-0.022794750713463457
-0.0001569719520616099
-0.022960729875591984
-0.023599559101877974
-0.07028139204389101
-0.00556807544291664
-5.9321671038019635e-05
-0.0242231901099603
-0.000137565609616124
-0.02932502520405334
-0.002603476211063051
-4.9014607967571986e-05
-0.000133037893629129
-0.06699158552549973
-0.045323991585707976
-0.001422215395399699
-0.04995652294838859
-0.002317665842102568
-0.0144776325915318
-0.004441222313368656
-0.07979715673756912
-0.010359046536684078
-0.06758986472802875
-0.0043873076613626565
-0.05639420465461792
-0.005982234408200253
-0.009913695878113188
-0.03790076286201257
-0.008879592878849785
-0.05579337810811636
-0.09079766816428679
-0.0902294906658658
-0.023469182066098482
-0.04507000726073306
-0.01590095714520443
-0.04067286511373038
-0.017040746247245865
-1.5965898611822557e-05
-0.00015525145544790318
-0.04226817654867272
-0.003913238912301266
-0.06546061085652681
-0.0060933458932924
-0.08397695187584361
-0.0051953526740811965
-0.04761787003317736
-0.006213395674898876
-0.03434780017341139
-0.08602370031503015
-0.06551122378308667
-0.03516386796040291
-0.03391682411483893
-0.09387443006821258
-0.0005778622174160448
-0.00012172967815080033
-0.019724501705137693
-0.0002727997477710322
-0.05857634800369063
-0.08999725462912805
-0.03043631738598879
-0.054437821617078615
-0.03509523267129657
-0.005164627616474468
2.12522456865936e-06
-0.008502057021274339
-0.01904457628342962
-0.01654809748730468
6.930138792418292e-06
9.294803264266852e-06
3.3177328867979576e-06
-0.07146331043370217
-0.005521057134208175
-0.006079562218411583
-0.0286846817794032
-0.023170823898625684
-0.005500345451997243
-0.004983574430694523
-0.10065756983204759
-0.05740404932259337
-0.016170743290428488
-0.05123207449075379
-0.014046139477460143
-0.043582219011281315
-0.09800673466309613
-0.04325095535439995
-0.0024478487560208044
-0.057912933433714536
-0.0038658297957106587
-0.09542606610508962
-0.011970056869555726
-0.07693562009143812
-0.016542004411837823
-0.0988704447058292
-0.0520872492704064
-0.006998283923169278
-0.07216923083241845
-0.01046332215135137
-0.048555253007576675
-0.01513423222434236
-0.00010450283842022064
-0.00033255813948560503
-0.0813565334687213
-0.022337164187692746
-0.0026344689990538974
-0.0029370489286822446
-0.07793346418370749
-0.033653858681528155
-0.0665231620592403
-0.09635107731467212
-0.025612513285383512
-0.015281385343023729
-0.027298532256485326
-0.07933339675558411
-0.043959616620020646
-0.01925532345377908
-0.011240287500400011
-0.03300602156823253
-0.007849164695281513
-0.042277101516806886
-0.007804317736222632
-0.021022648114199644
-0.004667304292781239
-0.009294225313792344
-0.07691814470627176
-0.08670282345464013
-0.03429099497294689
-0.0038947944125525217
-0.0043669955594478815
-0.020343515316638992
-0.00022931274004693125
-0.03797774382854361
-0.0004923098944239687
-0.04916703702006363
-0.00877863419888586
-0.00022111896235983933
-0.0004572159545424368
-0.05547639149040104
-0.026764487790310446
-0.07587031276063709
-0.018014826222325073
-0.00692153058845957
-0.01723475785574353
-0.028038681048780767
-0.0010823572864072388
-0.0002714878755487009
-0.00023021889303797828
-0.094536073885538
-0.018510617708459833
-0.03206073840363746
-5.834779906439504e-05
-0.0001939086903686113
-0.08074799789162364
-0.006950172701615974
-0.05563330640028992
-0.008378691214758325
-0.06580514216956812
-0.03199704577059711
-0.0045894676152422416
-0.07282134817341655
-0.007802497948818811
-0.0830991360089033
-0.004986958470746772
-0.01564320375521014
-0.0036490216934391517
-0.09995836816613701
-0.049472338225077864
-0.09609159174304328
-0.06050802898041876
-0.0004457083336091619
-0.02173032584195766
-0.0008760121479433546
-0.02296609360010525
-0.008158511680385677
-0.05329153314241508
-0.009643910680869283
3.841002555196081e-06
-0.023548416212263595
-3.255651765326876e-05
-0.023419651168796213
-0.0035381303373185663
9.405822079366326e-06
-1.9038313547836505e-05
-0.09334249500495954
-0.01765643369949568
-0.00911287074364269
-0.02582428984498118
-0.05948458122365507
-0.0008945026996767434
-0.03728690857545289
-0.0015311121051667447
-0.030336483248349748
-0.0011823568786390815
-0.0024502348614884825
-0.0644430327216343
-0.0582312044749766
-0.010994252694909631
-0.05488246908215882
-0.011447956996778958
-0.0011267668627181536
-0.00013700104399934422
-0.023139946894117795
-0.0002978236480974692
-0.08760442311365295
-0.07539183997226194
-0.07954501499150077
-0.019935762288763172
-0.0029214854430372455
-0.06684840287599314
-0.0053044145464388875
-0.05938700569076997
-0.0010839911189899035
-0.007537385950818699
-0.0011726432704327226
-0.031983864258819654
-6.516348581547312e-05
-0.0311951939037486
-0.00024604549357700145
-0.05019850210710948
-0.040253195427243
-0.00039699077808697967
-0.03915696800738152
-0.0008169901092196641
-0.09938437060216922
-0.03035782741697303
-0.006016197644242099
-0.01097103257831987
-0.04943201113977606
-0.0002305631808379616
-0.029029938417932832
-0.0005649194811438673
-0.010954376402141223
-0.0067858809329698
-0.0238077377059463
-0.032495877837720635
-0.01502561672666789
-0.0007037072319943647
-0.04778679686653593
-0.0014678738389660281
-0.018429224540358804
-0.0006617572480344398
-4.112722878666307e-05
-6.833484699875171e-05
-0.008664227776182771
-0.01656968378827433
-0.05952168881483798
-0.019013633283843194
-0.03179294815186654
-0.0852288659199041
-0.03651520868652528
-0.04636833291908341
-0.009462568949241648
-0.015256802515024358
-0.0013862214688323121
-9.648505762650537e-05
-0.020682239604680522
-0.00017664099859112013
-0.022265944427638976
-0.022467231351005156
-0.010323943383530336
-0.02608594947356109
-0.047837072577922746
-0.0217461370824782
-0.00010280191567652275
-0.0003457533258527683
-0.028331850890066925
-0.09628251537220332
-0.008854065225701124
-0.002827267712821525
-0.07024524997007309
-0.006942304952655021
-0.07762129446522
-0.06286450520531209
-0.03139430270571522
-0.0803561445603736
-0.01641164927973521
-0.06307214780685969
-0.016846034536293835
-0.009449517931082894
-0.07293176201182996
-0.01318746845116883
-0.06294149667736272
-0.03515057978738956
-0.07073104649917646
-0.0005855195844931202
-0.000213511164689232
-0.023807861670687734
-0.0005659575712885159
-0.013629615331565679
-0.0049769595075854324
-0.08488827643905604
-0.012617196318794188
-0.07592977538206068
-0.059531233811030024
-0.029905732206711243
-0.01580705286557406