# vtk DataFile Version 1.0
2D Simulation C++
ASCII
DATASET UNSTRUCTURED_GRID
FIELD FieldData 1
NODES 1 2 int
2209 4256

POINTS 2209 double
0.0 0.0 0.0
0.0 1.0 0.0
1.0 1.0 0.0
1.0 0.0 0.0
0.0 0.02500000037252903 0.0
0.0 0.05000000074505806 0.0
0.0 0.07500000298023224 0.0
0.0 0.10000000149011612 0.0
0.0 0.125 0.0
0.0 0.15000000596046448 0.0
0.0 0.17499999701976776 0.0
0.0 0.20000000298023224 0.0
0.0 0.22499999403953552 0.0
0.0 0.25 0.0
0.0 0.2750000059604645 0.0
0.0 0.30000001192092896 0.0
0.0 0.32499998807907104 0.0
0.0 0.3499999940395355 0.0
0.0 0.375 0.0
0.0 0.4000000059604645 0.0
0.0 0.42500001192092896 0.0
0.0 0.44999998807907104 0.0
0.0 0.4749999940395355 0.0
0.0 0.5 0.0
0.0 0.5249999761581421 0.0
0.0 0.550000011920929 0.0
0.0 0.574999988079071 0.0
0.0 0.6000000238418579 0.0
0.0 0.625 0.0
0.0 0.6499999761581421 0.0
0.0 0.675000011920929 0.0
0.0 0.699999988079071 0.0
0.0 0.7250000238418579 0.0
0.0 0.75 0.0
0.0 0.7749999761581421 0.0
0.0 0.800000011920929 0.0
0.0 0.824999988079071 0.0
0.0 0.8500000238418579 0.0
0.0 0.875 0.0
0.0 0.8999999761581421 0.0
0.0 0.925000011920929 0.0
0.0 0.949999988079071 0.0
0.0 0.9750000238418579 0.0
0.02500000037252903 1.0 0.0
0.05000000074505806 1.0 0.0
0.07500000298023224 1.0 0.0
0.10000000149011612 1.0 0.0
0.125 1.0 0.0
0.15000000596046448 1.0 0.0
0.17499999701976776 1.0 0.0
0.20000000298023224 1.0 0.0
0.22499999403953552 1.0 0.0
0.25 1.0 0.0
0.2750000059604645 1.0 0.0
0.30000001192092896 1.0 0.0
0.32499998807907104 1.0 0.0
0.3499999940395355 1.0 0.0
0.375 1.0 0.0
0.4000000059604645 1.0 0.0
0.42500001192092896 1.0 0.0
0.44999998807907104 1.0 0.0
0.4749999940395355 1.0 0.0
0.5 1.0 0.0
0.5249999761581421 1.0 0.0
0.550000011920929 1.0 0.0
0.574999988079071 1.0 0.0
0.6000000238418579 1.0 0.0
0.625 1.0 0.0
0.6499999761581421 1.0 0.0
0.675000011920929 1.0 0.0
0.699999988079071 1.0 0.0
0.7250000238418579 1.0 0.0
0.75 1.0 0.0
0.7749999761581421 1.0 0.0
0.800000011920929 1.0 0.0
0.824999988079071 1.0 0.0
0.8500000238418579 1.0 0.0
0.875 1.0 0.0
0.8999999761581421 1.0 0.0
0.925000011920929 1.0 0.0
0.949999988079071 1.0 0.0
0.9750000238418579 1.0 0.0
1.0 0.9750000238418579 0.0
1.0 0.949999988079071 0.0
1.0 0.925000011920929 0.0
1.0 0.8999999761581421 0.0
1.0 0.875 0.0
1.0 0.8500000238418579 0.0
1.0 0.824999988079071 0.0
1.0 0.800000011920929 0.0
1.0 0.7749999761581421 0.0
1.0 0.75 0.0
1.0 0.7250000238418579 0.0
1.0 0.699999988079071 0.0
1.0 0.675000011920929 0.0
1.0 0.6499999761581421 0.0
1.0 0.625 0.0
1.0 0.6000000238418579 0.0
1.0 0.574999988079071 0.0
1.0 0.550000011920929 0.0
1.0 0.5249999761581421 0.0
1.0 0.5 0.0
1.0 0.4749999940395355 0.0
1.0 0.44999998807907104 0.0
1.0 0.42500001192092896 0.0
1.0 0.4000000059604645 0.0
1.0 0.375 0.0
1.0 0.3499999940395355 0.0
1.0 0.32499998807907104 0.0
1.0 0.30000001192092896 0.0
1.0 0.2750000059604645 0.0
1.0 0.25 0.0
1.0 0.22499999403953552 0.0
1.0 0.20000000298023224 0.0
1.0 0.17499999701976776 0.0
1.0 0.15000000596046448 0.0
1.0 0.125 0.0
1.0 0.10000000149011612 0.0
1.0 0.07500000298023224 0.0
1.0 0.05000000074505806 0.0
1.0 0.02500000037252903 0.0
0.9750000238418579 0.0 0.0
0.949999988079071 0.0 0.0
0.925000011920929 0.0 0.0
0.8999999761581421 0.0 0.0
0.875 0.0 0.0
0.8500000238418579 0.0 0.0
0.824999988079071 0.0 0.0
0.800000011920929 0.0 0.0
0.7749999761581421 0.0 0.0
0.75 0.0 0.0
0.7250000238418579 0.0 0.0
0.699999988079071 0.0 0.0
0.675000011920929 0.0 0.0
0.6499999761581421 0.0 0.0
0.625 0.0 0.0
0.6000000238418579 0.0 0.0
0.574999988079071 0.0 0.0
0.550000011920929 0.0 0.0
0.5249999761581421 0.0 0.0
0.5 0.0 0.0
0.4749999940395355 0.0 0.0
0.44999998807907104 0.0 0.0
0.42500001192092896 0.0 0.0
0.4000000059604645 0.0 0.0
0.375 0.0 0.0
0.3499999940395355 0.0 0.0
0.32499998807907104 0.0 0.0
0.30000001192092896 0.0 0.0
0.2750000059604645 0.0 0.0
0.25 0.0 0.0
0.22499999403953552 0.0 0.0
0.20000000298023224 0.0 0.0
0.17499999701976776 0.0 0.0
0.15000000596046448 0.0 0.0
0.125 0.0 0.0
0.10000000149011612 0.0 0.0
0.07500000298023224 0.0 0.0
0.05000000074505806 0.0 0.0
0.02500000037252903 0.0 0.0
0.5059221652066604 0.5052361357398643 0.0
0.7121949647323352 0.7043405504285808 0.0
0.7037797713796685 0.2949670496796449 0.0
0.29787079387232884 0.7080956978711894 0.0
0.29515709844268806 0.2982424389166639 0.0
0.7780825306168673 0.5049530338390055 0.0
0.502672528535475 0.22312673477179937 0.0
0.4931914130622762 0.7803636401154928 0.0
0.22361604730723933 0.49874628863696335 0.0
0.8288449524730687 0.8224261724965038 0.0
0.8220951827993532 0.1721286532997892 0.0
0.1805073870279637 0.8299233481053234 0.0
0.17238795457266068 0.18045606080892496 0.0
0.6438838323615941 0.5669213929697454 0.0
0.5644346463371291 0.36838442498932433 0.0
0.44237328645906515 0.6370773767419942 0.0
0.3626719306390431 0.4305985109381411 0.0
0.846621812690318 0.6441822057315942 0.0
0.6451365637786309 0.1560837746240902 0.0
0.35197545838262084 0.8437488797399875 0.0
0.15601611780088598 0.3571253252055172 0.0
0.6486617186512497 0.8440651984894835 0.0
0.8440572989997329 0.3583305126152228 0.0
0.15798787237595288 0.6445606231598573 0.0
0.35909210770102534 0.15824306909152613 0.0
0.6747840975173364 0.44892253702443946 0.0
0.5847285798768674 0.6789803342639997 0.0
0.447196586815639 0.32231996072314584 0.0
0.32878249582116076 0.5590349274294262 0.0
0.8842358553410525 0.5316721219149158 0.0
0.5319831686296975 0.11385973967840816 0.0
0.46821034681475976 0.8880227546973434 0.0
0.11356202028346568 0.4707604736584086 0.0
0.898536916202235 0.7426846534258571 0.0
0.7429907963575663 0.10355045443941245 0.0
0.25971997439859673 0.8978880883554082 0.0
0.1041835694279629 0.25979973200188455 0.0
0.7448217158656064 0.885418640433604 0.0
0.1184871939921798 0.744551749534767 0.0
0.8836455435497057 0.2576981953413353 0.0
0.2574255473098298 0.1190832586492844 0.0
0.7434907129940478 0.6046922473812008 0.0
0.6097450705262871 0.25158723471124567 0.0
0.39629355404765115 0.750277433347618 0.0
0.25452967698483187 0.3974304746488712 0.0
0.5238841893685917 0.594291398717474 0.0
0.8993790716026034 0.887181808965023 0.0
0.8865126264399544 0.1022418026039593 0.0
0.11612444568343473 0.9001508497357624 0.0
0.1021501656863467 0.1161160366381394 0.0
0.7635390124352198 0.3920299925781142 0.0
0.23889466898721376 0.6123186291176674 0.0
0.3913398529643297 0.23759988404840265 0.0
0.8994837448037777 0.43755693376496 0.0
0.43747022610490194 0.10318927763325975 0.0
0.5656656693952186 0.8970662708359622 0.0
0.103118992869718 0.5650409647435352 0.0
0.7889996774198285 0.7438948381856586 0.0
0.7437392512974492 0.21242575004619146 0.0
0.25788280436807687 0.7898411120194417 0.0
0.21228784184908356 0.2585499790942684 0.0
0.7206285529183089 0.8028533931893261 0.0
0.7962677907956554 0.2843464885575129 0.0
0.20620412769678972 0.7184829527845453 0.0
0.2882898654862283 0.202676247920952 0.0
0.5950624100720421 0.49606522707740897 0.0
0.4911766755457268 0.414188205473139 0.0
0.4254425974849187 0.5490778293627095 0.0
0.6326991470917444 0.7608209677846818 0.0
0.6530461800872919 0.355049840430443 0.0
0.4969375893101712 0.6950784732270961 0.0
0.35458069402425074 0.644962413875136 0.0
0.34959633555233 0.3501092229579645 0.0
0.916670127397889 0.8170141306623322 0.0
0.8167015872225273 0.0852712085174272 0.0
0.18559962674599026 0.9175342461521933 0.0
0.0849594280799069 0.18559906361876025 0.0
0.8284241670399427 0.9117770897385719 0.0
0.09124149806226832 0.8289944421532093 0.0
0.9113981259648957 0.17360868352318373 0.0
0.1733652855850145 0.09123971716514385 0.0
0.7001069941661301 0.5186029752473645 0.0
0.6502545835854322 0.6502847602368566 0.0
0.5132285350695963 0.30528462234053827 0.0
0.30034179249589005 0.486848919189479 0.0
0.9194588151022955 0.607999034011461 0.0
0.6138858443234723 0.08616151428482231 0.0
0.39710650083906635 0.9217684151971441 0.0
0.08393127053266035 0.3886823722367998 0.0
0.6642310624006399 0.9209479174352737 0.0
0.08156876439180852 0.6633939111266463 0.0
0.9209043127200693 0.33944008815652427 0.0
0.339236007894809 0.08165426111586907 0.0
0.8236645365659713 0.43652718778996424 0.0
0.5676769619687405 0.8190111986916593 0.0
0.436214247989533 0.17819904712864731 0.0
0.17901855965246397 0.5668163855431751 0.0
0.4339974145188696 0.4607382093580838 0.0
0.8206216312741994 0.5700009061306015 0.0
0.5689329526536214 0.18212790382717056 0.0
0.43202105745747355 0.8209273745242056 0.0
0.18157272792504953 0.43351595417837047 0.0
0.7724140702933592 0.6688568386328113 0.0
0.6693172983538146 0.22625189146763666 0.0
0.3326473923551641 0.7772517342727693 0.0
0.22638680534365146 0.3335884602932503 0.0
0.9300842608323223 0.6850259460987685 0.0
0.6857975788520002 0.07283927174463553 0.0
0.3137917638814852 0.927768283583566 0.0
0.07485443262185772 0.3131697014937033 0.0
0.5625929554344619 0.743127687182573 0.0
0.6026872903553171 0.4204023307426494 0.0
0.3754268997222334 0.5015709221588103 0.0
0.7355975052816579 0.45846774672092894 0.0
0.4561476715224336 0.2642913468395021 0.0
0.26742492481549407 0.5451737823639349 0.0
0.5880463432406601 0.6161611432430396 0.0
0.4181171294977751 0.38955916693626563 0.0
0.5725388324046721 0.5435617648531009 0.0
0.5488174558252041 0.45044690471562876 0.0
0.9356459580809815 0.49704511702089194 0.0
0.4986036482922515 0.06714281970090434 0.0
0.5030842941680091 0.9338792914143651 0.0
0.06694252586590164 0.5037783829424407 0.0
0.8474586538839151 0.4988313933203463 0.0
0.49757469531003823 0.15485735117892802 0.0
0.5000684970546838 0.8444934975318459 0.0
0.15462278746916852 0.5046202306697838 0.0
0.8456184526984918 0.6986964474366217 0.0
0.6991244015234034 0.15636872891822887 0.0
0.3022606376319442 0.8451919853258671 0.0
0.15681617602783515 0.30320881860376286 0.0
0.7711949763026656 0.8394426415960398 0.0
0.8372002480377053 0.22999162726392683 0.0
0.16514600675203 0.7725012511548164 0.0
0.22944171554669102 0.16491526980655086 0.0
0.7636223214782387 0.327674706119427 0.0
0.23843568652059013 0.6757572998305678 0.0
0.32679072290080347 0.2392208560480083 0.0
0.6404571004371982 0.3019427727693969 0.0
[...]
POINT_DATA 2209
SCALARS Psi double
LOOKUP_TABLE default
0.0
0.0
0.0
0.0
0.0
0.0
0.0
0.0
0.0
0.0
0.0
0.0
0.0
0.0
0.0
0.0
0.0
0.0
0.0
0.0
0.0
0.0
0.0
0.0
0.0
0.0
0.0
0.0
0.0
0.0
0.0
0.0
0.0
0.0
0.0
0.0
0.0
0.0
0.0
0.0
0.0
0.0
0.0
0.0
0.0
0.0
0.0
0.0
0.0
0.0
0.0
0.0
0.0
0.0
0.0
0.0
0.0
0.0
0.0
0.0
0.0
0.0
0.0
0.0
0.0
0.0
0.0
0.0
0.0
0.0
0.0
0.0
0.0
0.0
0.0
0.0
0.0
0.0
0.0
0.0
0.0
0.0
0.0
0.0
0.0
0.0
0.0
0.0
0.0
0.0
0.0
0.0
0.0
0.0
0.0
0.0
0.0
0.0
0.0
0.0
0.0
0.0
0.0
0.0
0.0
0.0
0.0
0.0
0.0
0.0
0.0
0.0
0.0
0.0
0.0
0.0
0.0
0.0
0.0
0.0
0.0
0.0
0.0
0.0
0.0
0.0
0.0
0.0
0.0
0.0
0.0
0.0
0.0
0.0
0.0
0.0
0.0
0.0
0.0
0.0
0.0
0.0
0.0
0.0
0.0
0.0
0.0
0.0
0.0
0.0
0.0
0.0
0.0
0.0
0.0
0.0
0.0
0.0
0.0
0.0
-0.024373302030359017
-0.04547794350788924
-0.0072430622851941155
-0.036356620863980435
-0.006962641504730741
-0.014480193587457032
-0.006167859326170714
-0.05909875545141374
-0.012378793619975235
-0.05031162547792485
-0.0015920458300721114
-0.03443446076990805
-0.0015658850442783752
-0.028965227079966252
-0.013571291759631161
-0.03758692613909366
-0.015443056790829513
-0.01805733735968464
-0.0030313043970380256
-0.056255811274663295
-0.004093417741520162
-0.06589050228083897
-0.0043987136019070045
-0.013917419456682439
-0.003033941942371682
-0.016546265207764678
-0.04605827840475235
-0.010745868851255926
-0.02341405182646914
-0.006252880901300862
-0.0020445820336816383
-0.05959092109668449
-0.004110477624295682
-0.018194207213984407
-0.0011068663469813707
-0.04779256277276965
-0.0012712988784451555
-0.0606066218915613
-0.014301484490820967
-0.0015607041548906509
-0.0013366904421252262
-0.026960432656204788
-0.006957574869825725
-0.050234976452709246
-0.009503734746681345
-0.034159921393337
-0.036724325419033504
-0.0002963966221158571
-0.0279155355408486
-0.00030019425118500497
-0.009261426294456525
-0.020741864785696597
-0.006180900061520905
-0.0031399396673462508
-0.0016620352550083693
-0.05970519667269797
-0.0051636533982974174
-0.043953376479179025
-0.003647540108254927
-0.0418334868821657
-0.0037666427946693353
-0.061345088838865254
-0.0043758749346502375
-0.026272514678435187
-0.003675807810781033
-0.02296495889083133
-0.016815675071993316
-0.027051370964739363
-0.05850281951622711
-0.011319316026702378
-0.047400532359295366
-0.03374002038784826
-0.010550535245733699
-0.021779146438049495
-0.0004889834477995372
-0.03919790498879967
-0.0005087484565879984
-0.049692940254425305
-0.014866520381948948
-0.0004947718266750637
-0.00047585507167790576
-0.021033863956289825
-0.040078664483774507
-0.010128305801132666
-0.01641061747373163
-0.005027369415197568
-0.001147612798597194
-0.04988256323420552
-0.001673838920413367
-0.052778580209140086
-0.005318819651857351
-0.001257536505587337
-0.000918978069648631
-0.007717943765767985
-0.06457890036839731
-0.004147101520853042
-0.012123067247965741
-0.019527685317498888
-0.015019904397778689
-0.004357199872816184
-0.060113386584790894
-0.0072084576287256286
-0.032850774803108815
-0.005228992293921246
-0.04856661818637708
-0.006162707689797903
-0.006560974732648021
-0.0007323581468975465
-0.04505585608749447
-0.0009506153171866116
-0.055889607693864925
-0.016567860914587302
-0.020963191726973668
-0.014265368342630003
-0.00789422660484258
-0.018192785071868455
-0.036842531559319464
-0.014229333989343144
-0.02814499858001504
-0.01955778636859567
-0.0018892106354640066
-0.0008170771473890241
-0.0464950102125875
-0.0019290256018629304
-0.008343123659425565
-0.0034256469139230953
-0.06367242753958577
-0.007670918551629988
-0.025028789498484628
-0.0026414499777243517
-0.0521995448698977
-0.00314963167918205
-0.06081737221583286
-0.002230448195865801
-0.025144605402827532
-0.002009241118171585
-0.006722950741490431
-0.026223640300685493
-0.0054112392433025725
-0.008855840328128209
-0.04178058714661781
-0.009744618416432677
-0.04940546649731127
-0.0013173527129704354
-0.0034219476622126964
-0.0008270150336064464
-0.030469700429819436
-0.04728299452462206
-0.017622873555269754
-2.9071579498543827e-05
-0.023901720924093997
-2.7878428700946483e-05
-0.03009568468461214
-0.002143895656327335
-0.000649340999110649
-0.04348215429331666
-0.0012171904210793265
-0.009774222152925126
-0.0004181081447495306
-0.03823424718708592
-0.0004543737773769855
-0.04335219767561713
-0.005948335429842436
-0.0004344624182183296
-0.0003947343588742366
-0.03730646197510415
-0.0019020984664811598
-0.0440602306290831
-0.0020058066575713504
-0.06514716622213561
-0.0032339044991720562
-0.016389693920020983
-0.0025639345460075724
-0.03663906755002124
-0.023226550382151302
-0.013441223521689668
-0.0200089471153254
-0.009955507556001565
-0.04977179715756986
-0.013202931246310275
-0.030211742012261202
-0.007281764850079105
-0.011930626540943286
-0.01715736522874001
-0.0001419647360501087
-0.03027527514584539
-0.00014546047018303967
-0.03876487627877428
-0.011019524319984268
-0.00017936458198761823
-0.00017827978618831643
-0.04187294989789423
-0.012374020679571461
-0.009179360047536294
-0.025861863991004725
-0.0536895563904457
-0.010799326528366734
-0.0026844901979551795
-0.05997298590442912
-0.004303360974043464
-0.049582281485592565
-0.0050176006383461005
-0.03618126472791208
-0.004814946165310589
-0.05745927727587814
-0.023159113173080736
-0.005137633803812971
-0.05469864526874636
-0.007023598886838853
-0.04438533864077804
-0.0045274161067642565
-0.0005855997620585721
-0.00048738796731632723
-0.04051648650713479
-0.0006986655608037325
-0.03425446193517325
-0.0007031811864883371
-0.0076394173902536895
-0.004737743604828485
-0.01616115117446226
-0.039047047556914224
-0.05153961900273589
-0.0026114783004458743
-0.036058649919137584
-0.0025542602910030676
-0.009298933901053618
-0.02966597550092875
-0.0077146996157985166
-0.003247488735326892
-0.0631703414467225
-0.002038844614183839
-0.008248922460249714
-0.06399369285501824
-0.03979722668752806
-0.0634356359785541
-0.0235424365152403
-0.03271059559817975
-0.005252728777641705
-0.021044012504452984
-0.00394598732176088
-0.015927924250620566
-0.010855328630313158
-0.012352473208885844
-0.0009163472864343302
-0.0005105010284137537
-0.04023924892912194
-0.0016341218027761091
-0.05741237021628971
-0.023025856909130057
-0.001272684410448065
-0.0011903255034917892
-0.004566419641278327
-0.002006702391895129
-0.06102645675196902
-0.004938593378375436
-0.01083452050159471
-0.006135551768353484
-0.016705258075232245
-0.019822541434658926
-0.02489007931514459
-0.014979814450516719
-0.0018923008577893766
-0.05430169277351787
-0.0024247877443595916
-0.003361243488493287
-0.0002453565040989185
-0.029029955460650708
-0.0002443040048229253
-0.0016193402817188613
-0.00028132863469382355
-0.03350331384193988
-0.0004793672462032045
-0.013688517312009499
-0.04905636593972249
-0.014835751210887238
-0.019281759197363198
-0.02525434008425915
-0.05310835935692418
-0.033915223574011985
-0.0011421466641237928
-0.042174872157700764
-0.0011950220707556236
-0.042079080155130136
-0.005618053885831321
-0.04163425101093476
-0.005861601248869787
-0.04703618381687742
-0.0005489982789435723
-0.024945450781515666
-0.0005389832096709712
-0.025887999640530086
-0.01141762346395213
-0.05326703061624067
-0.029093002873773612
-0.0172359085535629
-0.019980207132799358
-0.06105422119149566
-0.01372932640648297
-0.016639247015756174
-0.02657114104927978
-0.0168464787343399
-0.017564875126809692
-0.008027787698106286
-0.009606004705105448
-0.015573291934527164
-0.0351072987003121
-0.041759797038057114
-0.007145361697117155
-0.0001520605189282238
-0.029483139365561527
-0.0001583933350794809
-0.03630629862554117
-0.005205272138528734
-0.00020550245204053032
-0.00019695419560963236
-0.01846167880385663
-0.021039481651241174
-0.027778522348731627
-0.006194577477793377
-0.009360458681666652
-0.01026806890410422
-0.0034979375013727294
-0.061750587242254615
-0.006693310231120456
-0.06331796692317128
-0.010711029194999224
-0.00263047238895595
-0.0019219999525003934
-0.03312647521295827
-0.0014926749913608541
-0.0003909121516338336
-0.0002785546479978526
-0.0014262432873725485
-0.0004148804419681135
-0.03204852290142095
-0.0006662510967968256
-0.0060921315582211704
-0.003002331062992412
-0.06465376278680697
-0.008238600663188638
-0.013130027421873329
-0.0053859877072090214
-0.06568585298470839
-0.0032201837673151196
-0.011411191065309231
-0.006880246484275896
-0.0473650525033023
-0.008426625711538358
-0.056185002643215964
-0.014390608933363419
-0.0009573971719091682
-0.0008691594134729978
-0.0432749911074544
-0.021093618002990124
-0.0007780835656669222
-0.043558959829764814
-0.0008388833554608466
-0.0117374633667816
-0.0021082022109848134
-0.05698568474952794
-0.002952764171430338
-0.013210841665528479
-4.013422907301392e-05
-0.02305554382929861
-4.058367638165444e-05
-0.007129156530681343
-0.025625785639699975
-3.363307788537411e-05
-3.353825104158691e-05
-0.055495381395358305
-0.02722819692111886
-0.0038389375018426943
-0.052136691219647396
-0.00468884739752709
-0.05890029796914584
-0.009292682165474069
-0.0015969623819264173
-0.001258186947874793
-0.042871302648298526
-0.009198685992916655
-0.035172584480233984
-0.008759315975982278
-0.005777030853108939
-0.010208269886154005
-0.016281001232641912
-0.011958462358630682
-0.010234170486616226
-0.004777958130222184
-0.01143271791214179
-0.004738483506917044
-0.0013629389966741511
-0.054417046142243894
-0.002422813741299862
-0.0619967824771353
-0.0215331160880787
-0.025525072447975188
-0.03154321431890867
-0.03202035763518362
-0.008704305046675513
-0.010820213967526589
-0.016166337157159386
-0.0035674302621028758
-0.05887603633216421
-0.005267794850586989
-0.0071260002362806925
-0.005042011197064141
-0.020863699665530602
-0.059765303610727384
-0.01949522881160126
-0.03711045870220737
-0.004241721080115742
-0.046151348723752185
-0.004688695927645292
-0.0008034551721990621
-0.00029832394233633995
-0.03093884128707829
-0.000644172448463715
-0.03303552393719896
-0.033727796515928256
-0.04573308028778132
-0.01903018455499055
-0.014406315276693742
-0.009093547307211226
-0.02197575977116225
-0.0418224118487172
-0.05024188473629187
-0.06325450564756055
-0.0027521441223763406
-0.021943114832144252
-0.00235183580490234
-0.05695302185403803
-0.0033948392061868564
-0.03205474813565583
-0.003151319497053949
-0.02935432049696757
-0.0020240423833345978
-0.048533293206724254
-0.002264237335515716
-0.012626512872872628
-0.0010569430099405415
-0.04888811127836612
-0.0013143785893942204
-0.013527630603132364
-0.0067989180617246655
-0.015340328227531388
-0.047502434735172634
-0.007257712336568347
-0.04222947707068321
-0.007860413517239838
-0.019291405303025585
-0.011658715265689073
-0.0018076646571723717
-0.0002090890047222964
-0.025900872975613252
-0.0002278852934596069
-0.016338332198173624
-0.015597275543703796
-0.03565869495190784
-0.007152179930353485
-0.0011230636613993033
-0.04980626679507408
-0.0014835491213798335
-0.006284028765081091
-0.0322454568955187
-0.005648395442467361
-0.028215286692162757
-0.0003474169451392864
-0.03408412972468432
-0.0003533618607807319
-0.03097209783191773
-0.001632694566388991
-0.00028547581342142363
-0.00022504642595932425
-0.0005640545384654343
-0.000264297325757346
-0.028945024475697544
-0.0006712719282051806
-0.003030291682627661
-0.0010081311934141348
-0.05002883541724968
-0.00209909219797812
-0.010794168946964841
6.640398940255766e-07
-0.012773618648830469
5.798048102556086e-07
-0.0383813731923261
-0.011960497220331443
-0.0075824962941425595
-0.02117220556929632
-0.05045282569428913
-0.0009041789726443128
-0.028075917027272485
-0.0008826031456635817
-0.028990856790847133
-0.0021750453500786597
-0.00018020886959302132
-0.00016083550285162003
-0.004707093678183888
-0.009517177076671256
-0.01202108786406786
-0.05158204887686021
-0.021332984140950615
-0.05369833047697671
-0.004850501802689465
-0.0015131560169328441
-0.0010160566981957174
-0.06198318945883219
-0.06192761253935362
-0.06113122958223691
-0.02062809472820498
-0.001767707991202653
-0.0015752525475424778
-0.05135873430956699
-0.000822647929657735
-0.007681608895340192
-0.0007047855147227762
-0.058466780068844024
-0.042966228624779744
-0.011143402957143706
-0.0005969725602512647
-0.042168919425067196
-0.0006742393990349845
-0.021995262637973873
-0.0018935168251221868
-0.0009523242063450635
-0.05046391127877404
-0.0027235057322683846
-0.030494259576810616
-0.000954583379711398
-0.00044467811975977404
-0.00026399912671108965
-0.037701635524832446
-0.030002557595117912
-0.035451895571979856
-0.018582673204032434
-0.05080517704739339
-0.004209016305508448
-0.06370235266444761
-0.0023128922743657493
-0.007581291488064895
-0.030329935687525008
-0.018366878107106292
-0.009240897090334285
-0.01429366268105305
-0.0613328577263241
-0.00802939935042538
-0.011111685289246914
-0.007665224417361166
-8.655466928745315e-05
-7.874436949788898e-05
-7.826962532067658e-05
-0.027407615745998634
-0.004003146942299645
-0.02590572897001545
-8.819138132235903e-05
-0.010867936419469447
-0.030288833724861304
-0.009011501233300205
-0.026499695753132158
-0.02533950917454367
-0.008544491254282815
-0.02457905424566403
-0.006375555923241959
-0.04212417717307031
-0.024679469514467613
-0.054896432364395974
-0.0019413231875552836
-0.031519535357003706
-0.0018531763763838154
-0.05194704147008093
-0.04338320468956874
-0.0025608224654315717
-0.045844006293434617
-0.00190691656779916
-0.04178028666052216
-0.038833465763703966
-0.002638829073123213
-0.001916266474363165
-0.00552514860380357
-0.016530133880682887
-0.0037868455777345057
-0.055953592385405614
-0.0020502775344160614
-0.055064847978048316
-0.0012051997634655771
-0.0043414383065050535
-0.026002625386598758
-8.268701652544229e-05
-0.023788947639807743
-8.455985961927545e-05
-0.0021342280203087215
-0.00010947098920999147
-0.022217029752883387
-0.00011553919711314782
-0.010227969362971491
-0.010642181306842347
-0.038334864767024655
-0.003576602902842394
-0.00010755235500900203
-0.02379777653478648
-0.00011396941529891056
-0.027826834968126827
-0.002523746357848709
-0.0001315001052063109
-0.0001232181372542622
-0.0260286086868595
-0.027985830755322023
-0.0013754092857098741
-0.046274692833876245
-0.0014997750011993384
-0.006587937201273771
-0.002564383381094406
-0.06256842648859105
-0.005643728599191905
-0.037361112787240185
-0.003111756714086768
-0.0459661038525599
-0.0033708587419381646
-0.00561481681159748
-0.024708616841237378
-0.004681048535359682
-0.021789158577109124
-0.06452226058114906
-0.06557528301166297
-0.010415110257165919
-0.02455261385380787
-0.007526540409646474
-0.03814181830914858
-0.0173482171641644
-0.00016985729755041167
-0.0001710358655815989
-0.019910494093568803
-0.0026371483019915617
-0.054688493291239475
-0.003338219480153553
-0.05098159203239143
-0.003616624100576239
-0.036765547634816244
-0.0035200901279016216
-0.014091827161346314
-0.03849091938461804
-0.027709496107987962
-0.014288398239512898
-0.01498995683766792
-0.05625782903229745
-0.0003092903690783658
-8.922614349927614e-05
-0.01874710778969459
-0.0001635898417032306
-0.027388113987563655
-0.06461584132230234
-0.01289194697959137
-0.021939198363523028
-0.014907724900296163
-0.005332316581865009
-3.269392112772946e-06
-0.008093673851439229
-0.018604168501052582
-0.016459506610995375
-3.360789190379962e-06
-4.007791714404713e-06
-4.070064013828708e-06
-0.033243371022243846
-0.0037084447403419496
-0.003859824958778656
-0.020184315668636398
-0.015409126496386387
-0.0031591206946937366
-0.0028644307321367924
-0.052512333930689915
-0.022042365866621363
-0.007970688427326136
-0.03075142162848404
-0.00683999116866654
-0.01705702251208294
-0.05716766195012207
-0.02299150873713576
-0.0019351955501706005
-0.05119736425466619
-0.0022724667841011186
-0.04592519061262091
-0.006179070501932255
-0.05119983265037694
-0.00802580988881073
-0.05024803554837716
-0.023051926391568795
-0.0040923291137425375
-0.05477650409233158
-0.0053968433898751635
-0.04481182915736156
-0.01509268969830926
-0.00031574534743253476
-0.00031313012145000826
-0.06335010167243187
-0.01738453426683129
-0.0022228035649433085
-0.0018762365395585375
-0.031520640532581065
-0.013743856289767783
-0.03286702447719527
-0.06005436525640097
-0.011046968432430063
-0.007251479298259252
-0.013197700459859001
-0.03613595411224745
-0.017422389323826226
-0.008925546794096618
-0.005636006995875604
-0.018364491708405227
-0.0048128450838541776
-0.029439637487548388
-0.00424440123507062
-0.009018615963130269
-0.0027326101897266254
-0.004924194118787148
-0.046270572373870576
-0.061141687718191076
-0.026617860919014306
-0.0029852509286360514
-0.0026402938886005136
-0.014211432642189487
-0.00036562686119728994
-0.037579845918371234
-0.00038658791565764154
-0.0451331196599224
-0.008299477274720274
-0.0004097409972882936
-0.000383576502237516
-0.021366356456481952
-0.011418202823370277
-0.03161181951901262
-0.0081186632544288
-0.003740269430821524
-0.009322607254751461
-0.02607303153327575
-0.0007659351794428081
-0.00024945165617238984
-0.00016443399016173734
-0.04374646922932477
-0.014756769299845714
-0.03208556927938409
-0.00018008495738316654
-0.00018487227244041448
-0.04405793197971186
-0.004371116475444317
-0.04130483581947238
-0.0044882365092676945
-0.026153430900671293
-0.013792642433302258
-0.002821380767295431
-0.05905494706636715
-0.004131199711476816
-0.0642431482973881
-0.0031906681544049227
-0.010186569242663672
-0.002166737531944915
-0.05620086513723956
-0.022134925031623353
-0.06515346512776593
-0.05247836631503355
-0.0007241145681072652
-0.020686091881781495
-0.0006928816659197873
-0.01016598618047808
-0.003654185350215734
-0.04812711428414686
-0.008363081700730045
-4.371375855892617e-05
-0.023477001888908496
-4.40036021008754e-05
-0.022528608483254605
-0.003705648979202993
-3.068967133605833e-05
-3.0264224577185828e-05
-0.044936376217850266
-0.008248793922307983
-0.004709573497644991
-0.01432097844891329
-0.04534233778262439
-0.0011112896148387332
-0.035194599889087984
-0.001105932825417855
-0.012680594476564397
-0.0008077090868230577
-0.001395033768914855
-0.027230738613637787
-0.02330969199064764
-0.006049476702026282
-0.036560354630491586
-0.005826990251379283
-0.0005394471466913641
-0.00011395588419188822
-0.02197119486888712
-0.0001800205268619924
-0.04090062621473498
-0.060809050216492334
-0.06116932138137729
-0.00872442041003367
-0.001903329872576805
-0.05718980111360737
-0.00287804912111786
-0.0515191768521279
-0.0010198112378415416
-0.005772119488043344
-0.0008009760597233567
-0.027645387077666513
-0.00023796760276012762
-0.031368614628370865
-0.00024316010261057888
-0.02466268706481055
-0.03083792210824319
-0.0006209184641802353
-0.03839277280151904
-0.0006393415206548119
-0.060688158925208374
-0.012720153019437587
-0.003450077103908093
-0.005697519136169867
-0.042518775131283104
-0.0004909778565595545
-0.028617930015059037
-0.0004886566010170376
-0.005782009591410822
-0.00369818477006596
-0.014237441970216315
-0.01335329597851731
-0.007796807941847337
-0.0006596436386810146
-0.0451263164259564
-0.0009241564818760509
-0.017040053389032514
-0.000566779109159949
-7.284536443304117e-05
-5.872016516115415e-05
-0.004591970880044911
-0.008439155929320112
-0.02334059447965185
-0.008664756953874626
-0.014980191361524696
-0.036082439586246066
-0.01479160296553765
-0.01912472870503867
-0.005044065510629604
-0.007595763898680667
-0.0006880201578759478
-8.956806992149675e-05
-0.019897244251253308
-0.00011579136256317922
-0.009948279580900693
-0.009910547969827063
-0.005225177648942007
-0.013908999613542541
-0.04339031419623999
-0.02167310355999413
-0.0003295124406344087
-0.00032808384396533724
-0.011983607966105397
-0.06501206808081046
-0.00424078329991533
-0.0017160376126940239
-0.05831169390275725
-0.0038473206986083417
-0.03184129856410446
-0.02762155644182745
-0.013608317766118032
-0.05768061364655877
-0.007998851075276616
-0.03814850082177586
-0.008024900070935197
-0.005202968371784012
-0.05167425681944131
-0.006586668155012737
-0.028514817294496918
-0.01585063078595683
-0.036313467080317276
-0.0003500427468885485
-0.00014735387009130174