# vtk DataFile Version 1.0
2D Simulation C++
ASCII
DATASET UNSTRUCTURED_GRID
FIELD FieldData 1
NODES 1 2 int
2209 4256

POINTS 2209 double
0.0 0.0 0.0
0.0 1.0 0.0
1.0 1.0 0.0
1.0 0.0 0.0
0.0 0.02500000037252903 0.0
0.0 0.05000000074505806 0.0
0.0 0.07500000298023224 0.0
0.0 0.10000000149011612 0.0
0.0 0.125 0.0
0.0 0.15000000596046448 0.0
0.0 0.17499999701976776 0.0
0.0 0.20000000298023224 0.0
0.0 0.22499999403953552 0.0
0.0 0.25 0.0
0.0 0.2750000059604645 0.0
0.0 0.30000001192092896 0.0
0.0 0.32499998807907104 0.0
0.0 0.3499999940395355 0.0
0.0 0.375 0.0
0.0 0.4000000059604645 0.0
0.0 0.42500001192092896 0.0
0.0 0.44999998807907104 0.0
0.0 0.4749999940395355 0.0
0.0 0.5 0.0
0.0 0.5249999761581421 0.0
0.0 0.550000011920929 0.0
0.0 0.574999988079071 0.0
0.0 0.6000000238418579 0.0
0.0 0.625 0.0
0.0 0.6499999761581421 0.0
0.0 0.675000011920929 0.0
0.0 0.699999988079071 0.0
0.0 0.7250000238418579 0.0
0.0 0.75 0.0
0.0 0.7749999761581421 0.0
0.0 0.800000011920929 0.0
0.0 0.824999988079071 0.0
0.0 0.8500000238418579 0.0
0.0 0.875 0.0
0.0 0.8999999761581421 0.0
0.0 0.925000011920929 0.0
0.0 0.949999988079071 0.0
0.0 0.9750000238418579 0.0
0.02500000037252903 1.0 0.0
0.05000000074505806 1.0 0.0
0.07500000298023224 1.0 0.0
0.10000000149011612 1.0 0.0
0.125 1.0 0.0
0.15000000596046448 1.0 0.0
0.17499999701976776 1.0 0.0
0.20000000298023224 1.0 0.0
0.22499999403953552 1.0 0.0
0.25 1.0 0.0
0.2750000059604645 1.0 0.0
0.30000001192092896 1.0 0.0
0.32499998807907104 1.0 0.0
0.3499999940395355 1.0 0.0
0.375 1.0 0.0
0.4000000059604645 1.0 0.0
0.42500001192092896 1.0 0.0
0.44999998807907104 1.0 0.0
0.4749999940395355 1.0 0.0
0.5 1.0 0.0
0.5249999761581421 1.0 0.0
0.550000011920929 1.0 0.0
0.574999988079071 1.0 0.0
0.6000000238418579 1.0 0.0
0.625 1.0 0.0
0.6499999761581421 1.0 0.0
0.675000011920929 1.0 0.0
0.699999988079071 1.0 0.0
0.7250000238418579 1.0 0.0
0.75 1.0 0.0
0.7749999761581421 1.0 0.0
0.800000011920929 1.0 0.0
0.824999988079071 1.0 0.0
0.8500000238418579 1.0 0.0
0.875 1.0 0.0
0.8999999761581421 1.0 0.0
0.925000011920929 1.0 0.0
0.949999988079071 1.0 0.0
0.9750000238418579 1.0 0.0
1.0 0.9750000238418579 0.0
1.0 0.949999988079071 0.0
1.0 0.925000011920929 0.0
1.0 0.8999999761581421 0.0
1.0 0.875 0.0
1.0 0.8500000238418579 0.0
1.0 0.824999988079071 0.0
1.0 0.800000011920929 0.0
1.0 0.7749999761581421 0.0
1.0 0.75 0.0
1.0 0.7250000238418579 0.0
1.0 0.699999988079071 0.0
1.0 0.675000011920929 0.0
1.0 0.6499999761581421 0.0
1.0 0.625 0.0
1.0 0.6000000238418579 0.0
1.0 0.574999988079071 0.0
1.0 0.550000011920929 0.0
1.0 0.5249999761581421 0.0
1.0 0.5 0.0
1.0 0.4749999940395355 0.0
1.0 0.44999998807907104 0.0
1.0 0.42500001192092896 0.0
1.0 0.4000000059604645 0.0
1.0 0.375 0.0
1.0 0.3499999940395355 0.0
1.0 0.32499998807907104 0.0
1.0 0.30000001192092896 0.0
1.0 0.2750000059604645 0.0
1.0 0.25 0.0
1.0 0.22499999403953552 0.0
1.0 0.20000000298023224 0.0
1.0 0.17499999701976776 0.0
1.0 0.15000000596046448 0.0
1.0 0.125 0.0
1.0 0.10000000149011612 0.0
1.0 0.07500000298023224 0.0
1.0 0.05000000074505806 0.0
1.0 0.02500000037252903 0.0
0.9750000238418579 0.0 0.0
0.949999988079071 0.0 0.0
0.925000011920929 0.0 0.0
0.8999999761581421 0.0 0.0
0.875 0.0 0.0
0.8500000238418579 0.0 0.0
0.824999988079071 0.0 0.0
0.800000011920929 0.0 0.0
0.7749999761581421 0.0 0.0
0.75 0.0 0.0
0.7250000238418579 0.0 0.0
0.699999988079071 0.0 0.0
0.675000011920929 0.0 0.0
0.6499999761581421 0.0 0.0
0.625 0.0 0.0
0.6000000238418579 0.0 0.0
0.574999988079071 0.0 0.0
0.550000011920929 0.0 0.0
0.5249999761581421 0.0 0.0
0.5 0.0 0.0
0.4749999940395355 0.0 0.0
0.44999998807907104 0.0 0.0
0.42500001192092896 0.0 0.0
0.4000000059604645 0.0 0.0
0.375 0.0 0.0
0.3499999940395355 0.0 0.0
0.32499998807907104 0.0 0.0
0.30000001192092896 0.0 0.0
0.2750000059604645 0.0 0.0
0.25 0.0 0.0
0.22499999403953552 0.0 0.0
0.20000000298023224 0.0 0.0
0.17499999701976776 0.0 0.0
0.15000000596046448 0.0 0.0
0.125 0.0 0.0
0.10000000149011612 0.0 0.0
0.07500000298023224 0.0 0.0
0.05000000074505806 0.0 0.0
0.02500000037252903 0.0 0.0
0.5046737062757041 0.5021629287036196 0.0
0.7106898888589068 0.7021124208848883 0.0
0.7016389892229875 0.2943012366998723 0.0
0.29651012421277556 0.7058714625320636 0.0
0.29409357177672424 0.29547434740249384 0.0
0.775207687952019 0.5047485304677454 0.0
0.5016087220686988 0.22104856178324211 0.0
0.49116864200805566 0.7769134052962711 0.0
0.22235422730415536 0.49616153111610306 0.0
0.8277694303827356 0.8200682072914595 0.0
0.8192309398271627 0.17026383635331052 0.0
0.17956973411219238 0.8292190306702395 0.0
0.16980713578288986 0.17956353351568405 0.0
0.6417358797256782 0.5651962511801107 0.0
0.5628878270342449 0.36660107781201534 0.0
0.4411803759224671 0.6342837920472832 0.0
0.3620331622073559 0.4270757405637177 0.0
0.8441425657579424 0.6431315601797836 0.0
0.6435139059900292 0.1551626749987497 0.0
0.34962427577193256 0.841303843891257 0.0
0.15500995704053516 0.3546118603320791 0.0
0.647859848790562 0.8412120166947425 0.0
0.8413320254669827 0.357881662306296 0.0
0.1571286332265023 0.6428946151356132 0.0
0.35799192486346626 0.15636916552473945 0.0
0.6731947707786652 0.44811948057789 0.0
0.5828388276085468 0.675853241171721 0.0
0.4460853921466467 0.3198695196607422 0.0
0.32761356096687616 0.556194868903897 0.0
0.8813741102140252 0.5309172208441837 0.0
0.5303954284098992 0.11261192874402257 0.0
0.4662407632429187 0.8851287122669701 0.0
0.11240702594955239 0.4681485913570655 0.0
0.8968985917749029 0.7413331713125202 0.0
0.7414059317812368 0.10197067338624494 0.0
0.25744317778509646 0.8965622305282458 0.0
0.10266061098954135 0.2576458307422165 0.0
0.7445733412544085 0.8827092600338904 0.0
0.11808106243587274 0.743537688416863 0.0
0.8805979096816733 0.25553513937704214 0.0
0.25499347026481595 0.11815906867710112 0.0
0.7409568934058743 0.6036483348114053 0.0
0.6084762435576786 0.2502356000608849 0.0
0.3941023337859802 0.7478621128641202 0.0
0.25318511970988933 0.3941693166201994 0.0
0.5223620400213751 0.591661643772932 0.0
0.8979249866926411 0.8850456078551491 0.0
0.8838455459669966 0.09987562747173602 0.0
0.11506601921598789 0.898726100271721 0.0
0.09952928948195082 0.11507342013301673 0.0
0.7606038384070922 0.39192828003787805 0.0
0.23740490596669964 0.6098115337245087 0.0
0.39011624280808715 0.2355186147993249 0.0
0.8971209825279558 0.43657259342423105 0.0
0.435922135674537 0.10139111300698514 0.0
0.563980100193811 0.8936541877973562 0.0
0.10213544890448588 0.5632791445689257 0.0
0.7876854947160814 0.7419461657197867 0.0
0.741731468343611 0.21071280677613166 0.0
0.25635735043926206 0.7884407230590303 0.0
0.2109840988030844 0.25681221551623673 0.0
0.7200518403374548 0.8002056525939847 0.0
0.7934062089604588 0.28291104733128575 0.0
0.2051895841871781 0.7175485482384313 0.0
0.2866885697984852 0.2011037947609434 0.0
0.5932636891302506 0.49436076207909896 0.0
0.4901516402025821 0.41159246221795187 0.0
0.42449901684531127 0.5458407731829965 0.0
0.6316690006620813 0.7580169894942493 0.0
0.6514054888571363 0.3540979062244339 0.0
0.4950470086993297 0.6919505545010094 0.0
0.3533407667685608 0.6422844648587562 0.0
0.3488758968194023 0.3469543686605864 0.0
0.915500297675018 0.8152352129590713 0.0
0.814816462828602 0.08267944093014311 0.0
0.18407005750942265 0.9158410329626017 0.0
0.08283700010120353 0.18461752250804037 0.0
0.8271211079863188 0.9092508081466333 0.0
0.09015680535889728 0.8276244084635849 0.0
0.9085582935845926 0.17117956618835048 0.0
0.17053951449837326 0.09042609608069192 0.0
0.6974160644421797 0.5176017200609885 0.0
0.648072984915996 0.6480477138434211 0.0
0.5121791406505057 0.3030681633731868 0.0
0.2993027002897882 0.4837452040010446 0.0
0.9170581397702648 0.6066789897527208 0.0
0.6123329569353526 0.0850037176585023 0.0
0.39479150782049727 0.9196166921395235 0.0
0.08228219436768355 0.3866536277901736 0.0
0.663147362661993 0.9180777949395542 0.0
0.08061672848443892 0.6621831881547432 0.0
0.9185979850273922 0.3374286224058314 0.0
0.33760929537439865 0.08015996717318892 0.0
0.821073822841482 0.43652136856007184 0.0
0.5659380606243609 0.81555437825713 0.0
0.4346127425305812 0.17618664666354772 0.0
0.17772510211895803 0.5641043575924418 0.0
0.43337688921883416 0.45742190405327454 0.0
0.8179253702320526 0.5697714927312407 0.0
0.5672491551692197 0.18087293270309962 0.0
0.42971729716891144 0.8179665757263426 0.0
0.18065923340391665 0.43083841178375326 0.0
0.7705042490020242 0.6674371743871359 0.0
0.6675640684467181 0.22518527082651088 0.0
0.33085729377738815 0.7751345721250649 0.0
0.22538389265936395 0.3307637436759338 0.0
0.9280319031473294 0.683531538133384 0.0
0.6841580769116883 0.07156414466206473 0.0
0.31174013450293636 0.9262976737998555 0.0
0.07319872287448675 0.31137387206303635 0.0
0.56035060447638 0.7396202898212898 0.0
0.6011660201321579 0.41882851736663357 0.0
0.3743093669582934 0.49800506947402223 0.0
0.733088247656999 0.45809478490408595 0.0
0.4547909196494043 0.2620714862350022 0.0
0.2660790252970326 0.5419678201932162 0.0
0.5868039680624063 0.6137858494614011 0.0
0.417181617742067 0.3863645698508566 0.0
0.5713253268235366 0.5413043419027491 0.0
0.5473877862184647 0.44804265945950195 0.0
0.9331996534383825 0.4957573038306841 0.0
0.49669217100820495 0.0659152108918517 0.0
0.5012463579864168 0.9312914487647024 0.0
0.06592761256880907 0.5022591209376389 0.0
0.8444836683774583 0.4978960490264365 0.0
0.49642557533474396 0.153132593498715 0.0
0.49785537254754775 0.8414727857893253 0.0
0.1533560752378138 0.5024691343422145 0.0
0.8438170441817978 0.6973177817582242 0.0
0.6969261140408514 0.15521037597854098 0.0
0.3005717384539084 0.8435855298421585 0.0
0.15530318661044848 0.3012889053569324 0.0
0.77053955385849 0.8368603329718616 0.0
0.8345448544528825 0.22793732384328638 0.0
0.16409676649385163 0.7717098406985354 0.0
0.2276158759436334 0.16407578122562522 0.0
0.7611965535938395 0.3268774592098925 0.0
0.2371334203873154 0.6742242738468882 0.0
0.3253035969114764 0.23704554656164162 0.0
0.6383613360237534 0.3008397670094735 0.0
[...]
POINT_DATA 2209
SCALARS Psi double
LOOKUP_TABLE default
0.0
0.0
0.0
0.0
0.0
0.0
0.0
0.0
0.0
0.0
0.0
0.0
0.0
0.0
0.0
0.0
0.0
0.0
0.0
0.0
0.0
0.0
0.0
0.0
0.0
0.0
0.0
0.0
0.0
0.0
0.0
0.0
0.0
0.0
0.0
0.0
0.0
0.0
0.0
0.0
0.0
0.0
0.0
0.0
0.0
0.0
0.0
0.0
0.0
0.0
0.0
0.0
0.0
0.0
0.0
0.0
0.0
0.0
0.0
0.0
0.0
0.0
0.0
0.0
0.0
0.0
0.0
0.0
0.0
0.0
0.0
0.0
0.0
0.0
0.0
0.0
0.0
0.0
0.0
0.0
0.0
0.0
0.0
0.0
0.0
0.0
0.0
0.0
0.0
0.0
0.0
0.0
0.0
0.0
0.0
0.0
0.0
0.0
0.0
0.0
0.0
0.0
0.0
0.0
0.0
0.0
0.0
0.0
0.0
0.0
0.0
0.0
0.0
0.0
0.0
0.0
0.0
0.0
0.0
0.0
0.0
0.0
0.0
0.0
0.0
0.0
0.0
0.0
0.0
0.0
0.0
0.0
0.0
0.0
0.0
0.0
0.0
0.0
0.0
0.0
0.0
0.0
0.0
0.0
0.0
0.0
0.0
0.0
0.0
0.0
0.0
0.0
0.0
0.0
0.0
0.0
0.0
0.0
0.0
0.0
-0.04828282260546394
-0.0832593291367222
-0.011355088298734347
-0.05111998465704464
-0.01082736146865061
-0.029372223851483206
-0.009695122368712018
-0.08611198918124877
-0.019374258515055812
-0.06711464436614993
-0.0015033213681679837
-0.037044171073314425
-0.0018516224899059286
-0.061079359006542065
-0.025377582071107272
-0.06622632978125165
-0.027292201595099045
-0.03618746946387395
-0.0040352725405280775
-0.06673786562209846
-0.005855114509755616
-0.0885856276355685
-0.006201708211499946
-0.018618071302464827
-0.004181794791952464
-0.03319229461010187
-0.08523367172549291
-0.01871858472912667
-0.03950050201876941
-0.011818114401454367
-0.0027605544860872244
-0.07054584210450253
-0.005830959725713799
-0.03017505832587037
-0.001110571403550075
-0.05070555931276482
-0.0015466172276541953
-0.07340540727310989
-0.016279745238699666
-0.0015333492356428813
-0.00158980319335502
-0.056724513631067966
-0.011040714504904443
-0.07202233489594669
-0.015189607886567234
-0.0667368689129675
-0.04170826738548168
-0.00015589400772487148
-0.027819701133787192
-0.00026663877375300294
-0.016128818363946536
-0.030843952024110024
-0.009636750064498212
-0.004699670443602264
-0.002185544423208275
-0.0720714724750359
-0.00701446764615185
-0.07305591334074932
-0.004583970258243411
-0.05030064495044624
-0.0052224559730660305
-0.08946916443432094
-0.005791331061775532
-0.033456292545812
-0.005135864679603461
-0.04745562374780622
-0.031967840267266665
-0.05007991505526925
-0.09440047001837626
-0.020391192383567312
-0.08081521176472434
-0.05431116061697424
-0.01779539459627326
-0.029249606775306677
-0.00035140710546782515
-0.04009064759338114
-0.0005193546093241275
-0.05565512446424374
-0.015119627722951674
-0.00032136687069867306
-0.0004700676613838379
-0.04435255069390444
-0.07941346347709878
-0.017605384818862185
-0.027608675149507177
-0.009859863943768784
-0.001398575503199214
-0.055310185578086195
-0.002258164607540725
-0.06167459979308694
-0.006455847431491578
-0.0013682644599486463
-0.001110710855150448
-0.013386382645691659
-0.09033479962571074
-0.006085433211255059
-0.017567860584238926
-0.03661797485643267
-0.031066155943715253
-0.00639670166706918
-0.07798942615281501
-0.010905326575257437
-0.06425835654311533
-0.007584295362359755
-0.06320508456447455
-0.0092856786870438
-0.012449260125066024
-0.0007784749263338482
-0.04828960020094349
-0.0011900448964398671
-0.09126585858575506
-0.03261866469828526
-0.03762044470219058
-0.028201637218116225
-0.01298016483034046
-0.029202129484224206
-0.0736886969435935
-0.025701694048474385
-0.05783752490659507
-0.038881057579853155
-0.003042946796478536
-0.0010219357278416273
-0.05306582456869387
-0.0025941625260129013
-0.015734996249503853
-0.004894728961238933
-0.08226820150617575
-0.011230853586086423
-0.04599420652931948
-0.0032508279771154345
-0.05989621711356904
-0.004313379258406807
-0.0798689415480023
-0.0023292435410306525
-0.02873471401739
-0.002497532647581935
-0.010317830918718279
-0.03647624556842517
-0.008127805603994308
-0.014870892367368738
-0.06282625421276575
-0.016022331172135647
-0.05722889842767277
-0.0016065771466542234
-0.004351535097624936
-0.0010232316084466775
-0.05289869539830916
-0.07547473803335615
-0.017526060215327797
-1.523664191931415e-05
-0.02554085915520746
2.387401021087339e-06
-0.058241365076138016
-0.0038658574534589413
-0.0007987812039172941
-0.04841637620129653
-0.0016309361950622313
-0.01532994202545997
-0.000346664755895268
-0.039796704283592145
-0.0005020472782235524
-0.048507845016920355
-0.006288152869179902
-0.000323937104826059
-0.00041616061003428275
-0.05698601438886139
-0.0019925083962712285
-0.04815219631301149
-0.0025203650171899657
-0.08565848243594497
-0.003986672899215239
-0.020553408143160576
-0.0034103839660088162
-0.07337461712117026
-0.04879447549036407
-0.02472474027616462
-0.04238833706554572
-0.01732097771581305
-0.08962375361403196
-0.022323550106769854
-0.06370314030994899
-0.011825845320403585
-0.019222695704329575
-0.020385268835407585
-6.480089651663257e-05
-0.03074801843680551
-0.00012327441622299171
-0.0421189709914999
-0.010642788987302003
-7.92498325438134e-05
-0.0001522115404466854
-0.07824847708038975
-0.023105946023170874
-0.015350119383565251
-0.04131228654485769
-0.07980315121114029
-0.021954685732442948
-0.003641696239823925
-0.07141481263800782
-0.00621190963067247
-0.08330529597593603
-0.0069261271638132145
-0.04659315273275775
-0.007004769336623499
-0.09240105854505752
-0.04805339773747784
-0.00759969651813056
-0.0713839952456412
-0.010746793884452053
-0.0504233275767308
-0.005040961067356771
-0.000505847630240712
-0.0005431087071119814
-0.04997525140787118
-0.0005099234632680559
-0.03490986399431846
-0.0007240369568218613
-0.01276588092617251
-0.007078145297464323
-0.023439069286117335
-0.07203882417019014
-0.07517802032035813
-0.0029120763680309273
-0.04123135696923175
-0.0032781388340909867
-0.01582216636250199
-0.0442010652261191
-0.012377493471472285
-0.004485633426751715
-0.0790936687923948
-0.0027148684626151047
-0.010944327433503789
-0.09352345942016066
-0.06477347159215706
-0.09253095466630588
-0.04504337348133816
-0.06046791771405249
-0.0075170361591682935
-0.02818598730356802
-0.005645128265280353
-0.030552171021341716
-0.019266694953420475
-0.02104319116846836
-0.0011821951739838833
-0.000627202753762325
-0.045478264430107315
-0.002120708621981631
-0.07016143173002709
-0.02476852747176715
-0.0011166054979279496
-0.0013473588403714184
-0.007829158631748991
-0.002700877825609547
-0.07396911263428874
-0.006963736817848919
-0.02008101682730892
-0.009613167186075413
-0.02547496778864848
-0.03820791209878324
-0.050574127816996516
-0.02863997187609882
-0.002266963879521695
-0.06070351068630021
-0.003272729912244655
-0.005879514213808224
-0.00022441678747513308
-0.030523808771473367
-0.0002856308405220317
-0.003108006414820305
-0.0003087473741273322
-0.036027833214246296
-0.000615274818869586
-0.02498034536741511
-0.08616397952895907
-0.02878620432413476
-0.039336315612730724
-0.045013940089043546
-0.09173559965649118
-0.04796052732600785
-0.0010218643204981943
-0.044171026073939176
-0.0013676254998936594
-0.07669175097894051
-0.008152268200698105
-0.054913630951474966
-0.008807233805922313
-0.05414040450074716
-0.00036186471003385565
-0.025078178447574845
-0.0005282418315253601
-0.055051462617065554
-0.01982106697871451
-0.08621138414980381
-0.05824687630583518
-0.03011182989290272
-0.03442214752093719
-0.0902032434724947
-0.025901858216716332
-0.0310541385406918
-0.05569722887939029
-0.03470025259365288
-0.03600290492010413
-0.013281455781027015
-0.016430799579599212
-0.025303117222380364
-0.0720366356572738
-0.08119214370008601
-0.009762525404788143
-9.579181733072929e-05
-0.03054144772465143
-0.0001535136039181636
-0.03983998797166999
-0.005200876707564708
-0.00011583241113801988
-0.00018913119119357816
-0.033536930523009885
-0.04441953035035236
-0.046282519563221124
-0.009670023798477067
-0.01474208316452863
-0.020381260599513673
-0.00499886294574297
-0.08241909583747149
-0.009900322406181765
-0.07930443825361748
-0.013513708778896629
-0.0032312666960907913
-0.002490032120871565
-0.03674283913363226
-0.001829269496444431
-0.0003744101606700183
-0.000326147026370547
-0.002654001652769705
-0.00048821865068378415
-0.034878056543682555
-0.0008946464359762429
-0.010446891752090577
-0.004219274797332638
-0.08372860664005512
-0.011738496289851604
-0.02307138547082562
-0.008386707222419422
-0.08828193298305208
-0.004531318770640686
-0.01586749237575753
-0.010857678288603572
-0.06687925157121859
-0.013372907779116741
-0.06551478494588342
-0.015498234828836568
-0.0007955363678305872
-0.0009529976781664505
-0.07459980096291004
-0.031302834258996104
-0.000670294216257218
-0.045190437623484646
-0.0009393507282374903
-0.023397256664682623
-0.002681484506732003
-0.06531738839418835
-0.0041228088362903394
-0.014587601669855541
-6.254202655957745e-06
-0.023533315427268154
-2.698876950921022e-05
-0.006950988446746672
-0.02710100743397557
-2.1356740066291605e-05
-1.5431008643360733e-06
-0.07644059163335744
-0.052669639165979616
-0.005191646686732971
-0.06361356788877968
-0.006792715433380585
-0.07054228416727489
-0.01106878105064246
-0.0017116941931236238
-0.0015305923639548557
-0.08217425747723606
-0.015595890025150062
-0.05292892177433468
-0.014278159405384606
-0.008943193157704591
-0.015934641981198074
-0.03378239535507066
-0.021621335576832497
-0.019367765186278776
-0.007198266666382924
-0.01719525254438632
-0.00918570490437802
-0.001738029049211383
-0.061941675161529916
-0.0033439934030693114
-0.07722675001208329
-0.039842192613769624
-0.05439254846035497
-0.06522073809436078
-0.06492644510314666
-0.014623380441899734
-0.017822341564123496
-0.033134067216567746
-0.0049835703814779505
-0.07301797793087002
-0.007740172501331491
-0.011372621714419886
-0.007542864468561248
-0.029543515102162982
-0.09404632889358137
-0.039255826903194777
-0.06723086298026378
-0.00571214926688625
-0.05725169483319045
-0.0067641000078461164
-0.001250260484933199
-0.0003651070419698379
-0.034203229101840246
-0.0008485550675057502
-0.06661680814734662
-0.06462923941366114
-0.07070924675889746
-0.03165551374243328
-0.02814088765691877
-0.015299320975568458
-0.03600446113846695
-0.07992436903804549
-0.08053744224531888
-0.08388502020982419
-0.003142053677480972
-0.02619566009259635
-0.0030259309047859667
-0.08436204051618211
-0.004070085709347149
-0.03853906853527701
-0.004213486214815473
-0.048902567048116956
-0.0022414556023686526
-0.053596096790603606
-0.002921351950774297
-0.022504899068147156
-0.001106669021845075
-0.0524156064009613
-0.0016371202559881362
-0.026751457849327573
-0.010882448064566402
-0.024084889569251075
-0.0875329671765219
-0.011480658879243759
-0.05965793699270134
-0.01241883482433002
-0.03981144178779789
-0.020808564857711202
-0.0033310568810332847
-0.0002128826986546858
-0.027589349409132723
-0.0002835863796238746
-0.02977700546743699
-0.03008646670929432
-0.06051540677870651
-0.014063495508175634
-0.0013143022244213832
-0.05449644641474885
-0.0019633994008360677
-0.009363162582971452
-0.04390229620577823
-0.008498662847200262
-0.03416254893364066
-0.0002112136402973226
-0.03433209571656121
-0.0003327067023331107
-0.0343890733570155
-0.0018632443743742673
-0.0002410153226280283
-0.0002555791698551502
-0.0007747445110968991
-0.00032523558398283735
-0.03241162569625262
-0.0008881760603637499
-0.00533694521008129
-0.001277924359100929
-0.056700258244120914
-0.0028430704440106772
-0.011044329651226386
2.3079852924663177e-06
-0.013333591919234689
3.803808402760081e-06
-0.07433245821349353
-0.022406335916875308
-0.012302110773437566
-0.03310237325911886
-0.06104885869287121
-0.0007047736718605041
-0.02909114889008757
-0.0009469063461259992
-0.031841460617022074
-0.00230383576623846
-0.00011920686504555894
-0.00016860774136724795
-0.00707486287631737
-0.014426221255729059
-0.02385121078647135
-0.09015868889000246
-0.042264447251097126
-0.06319355195258414
-0.006066291615074102
-0.0017842752861748292
-0.0012656419726565016
-0.08751020985209096
-0.09444631396773366
-0.07652814198168306
-0.02317400710332006
-0.0017330260679411676
-0.0018884742370691872
-0.05902111090615215
-0.000725642858625489
-0.008458791006147218
-0.0007897917899844769
-0.08127702068583333
-0.0772219271944449
-0.01816521834871741
-0.0005435619955681152
-0.04418889419152536
-0.0007739015633180467
-0.04455888451490602
-0.0027760371259300627
-0.0012009200691461659
-0.05833776009766432
-0.0036444018477271895
-0.03394299890163621
-0.0012183393058627472
-0.0005018693979961134
-0.00032453476879753374
-0.07348434201013847
-0.054274823795543436
-0.07246864039795342
-0.036180896800417264
-0.07652413032261646
-0.006452946340205464
-0.08035303838023233
-0.0031396693347632756
-0.010399795490104778
-0.06333020732316358
-0.036425858287309994
-0.015735703576169484
-0.0237926651064371
-0.09312197376086943
-0.013290460990020476
-0.01808515315130074
-0.00967223493703067
-4.145446709057439e-05
-2.8971332548759723e-05
-6.501663379218193e-05
-0.029686632356290335
-0.003928307839946696
-0.02666324535702885
-7.781084427637996e-05
-0.019442753585308045
-0.046698143980517456
-0.014882541040436586
-0.051706145752622744
-0.052387813876225
-0.014297761682010841
-0.035928253621230075
-0.009914031792462035
-0.06941642444711975
-0.04521587957863637
-0.0737022638036437
-0.0019359721317431526
-0.03491230825452923
-0.0022577819171272825
-0.08816193906858467
-0.06713778957052825
-0.0028784950125463828
-0.0655233379948429
-0.0019379426365410432
-0.047495329047450435
-0.04251166289187989
-0.003436062569206311
-0.002349375492744708
-0.008264217619642241
-0.022641975781036824
-0.0054301651194911035
-0.08357749529514995
-0.002770014186510963
-0.06517096490500861
-0.0015267459806015786
-0.005712289222240357
-0.02842675108192121
-2.0173343742303042e-05
-0.023717186253244333
-5.910750500607873e-05
-0.0034156523713139253
-8.991314264084922e-05
-0.023401916694804566
-0.00013190729991188462
-0.017886048224983082
-0.017861333685950484
-0.06032597751474654
-0.0052688014868352675
-7.362653157688616e-05
-0.024972904789402096
-0.00011641829885554683
-0.03032914698136565
-0.0025974149063755854
-7.243577464729254e-05
-0.00011901458508246415
-0.05521113162083431
-0.043575290353834645
-0.0013559387831007144
-0.049323095594297664
-0.0018107082325800224
-0.012122922691374242
-0.003537619709981366
-0.07717088921189454
-0.008100219153641995
-0.06349841555095546
-0.003793261966148845
-0.0537182235822679
-0.004603137455037104
-0.00811122483538074
-0.03323333847807612
-0.00685481663018844
-0.046210599549284394
-0.08820572828874121
-0.0876661280557726
-0.018559417498870082
-0.037439617448806854
-0.012129423774909777
-0.04142251792695258
-0.016962792164911967
-6.747490355185829e-05
-0.00013754501696018498
-0.0384572018077964
-0.0033179303278833795
-0.06315972371001571
-0.004669300218540268
-0.08001786419021815
-0.004484163693109079
-0.044298777666967534
-0.004823313475630231
-0.026080342677540027
-0.0727424450626675
-0.05241748305524477
-0.02682048623985878
-0.025920645785195425
-0.08897855422432109
-0.00044313008181112804
-0.0001089197001320536
-0.020043778610077265
-0.0002262100263090079
-0.047337320989186464
-0.0858580171606476
-0.02302637961176521
-0.04237209048450475
-0.02661870439918018
-0.0052490422709520375
-2.4673010563087665e-07
-0.008797401524013005
-0.019453033762532965
-0.017090784718273792
3.7015048388152205e-06
4.787246750279573e-06
1.8352900197392654e-07
-0.059034185494180214
-0.004711917759217676
-0.005124587779872301
-0.025549049120289
-0.02004444530849032
-0.004302742593439411
-0.003910909264239024
-0.09178726621552254
-0.045817747307797495
-0.012889092425161971
-0.04422037769972511
-0.01073578763019625
-0.034152860961127324
-0.08953730577805623
-0.0404740122591708
-0.0021888903521745497
-0.05657660694762435
-0.0029615450842622147
-0.08368853072033136
-0.009536041991575199
-0.07026577623119853
-0.012575902845678688
-0.0883035159514431
-0.04656962959474602
-0.005729784652209165
-0.06805941155747197
-0.007974633480690009
-0.04947326006195586
-0.014956446131162216
-0.00017451994452212478
-0.0002861104551096411
-0.08019981767430773
-0.020584200931689896
-0.002393233019165669
-0.0023370467640711308
-0.06609064469709282
-0.026353576070546184
-0.05538238558444285
-0.0917313326578277
-0.019702402688292167
-0.011769102438350233
-0.021189245501323714
-0.06616436015720817
-0.03626891888637035
-0.015446447353256515
-0.00865175889789876
-0.027119390335255143
-0.006523316438321036
-0.038018692718559476
-0.006054737026418609
-0.01794857678653411
-0.0037534314233139744
-0.007134042011375972
-0.06836225034485639
-0.08432280063303044
-0.03173731447550701
-0.0034517955915437724
-0.0034458110995162325
-0.019999625887333596
-0.0002642640521982517
-0.03871012670211743
-0.0003977627177704858
-0.050128213074594065
-0.008512511102158532
-0.00027471277802796213
-0.00038292833813899775
-0.04491579190542507
-0.020312658882844625
-0.061865917501459394
-0.01475914874102863
-0.0054282867137555625
-0.013635651172826217
-0.028505588974591274
-0.0009515724063017214
-0.0002369577980640946
-0.00019725964571692468
-0.08391003462290554
-0.018481888689361476
-0.032705392286721854
-9.56985406259737e-05
-0.0001657869644226278
-0.07563869552265849
-0.005815824216741702
-0.05144164322932829
-0.00643742866695449
-0.05234065871831149
-0.028023757359051833
-0.0037935950726025115
-0.07014643713839223
-0.0059452211383941205
-0.08135647847321496
-0.004215077082149945
-0.013250676950512404
-0.002861364761484761
-0.09311482556052193
-0.03886754985892422
-0.09208766209899004
-0.060766256133298016
-0.0005250694102930394
-0.02121513122435909
-0.0007172125651999146
-0.017345867947621885
-0.007075226969053998
-0.053478873925890034
-0.00964281033414345
-1.2717592683658181e-05
-0.02406116616106591
-3.309893690761674e-05
-0.024037805322354444
-0.003604087854003415
-3.4601248589030624e-06
-2.2321763084297362e-05
-0.081234848421891
-0.014332522287921319
-0.007030874702125896
-0.02095261197322557
-0.05862107072181058
-0.0009397075876099828
-0.036727353520877117
-0.0012322754395441694
-0.023596308177902297
-0.000984200860033652
-0.0018863439799077385
-0.05647361634942029
-0.0495072801932224
-0.00890183438565085
-0.049127662686472694
-0.008777365864013113
-0.00091573368817785
-0.00013584337617583294
-0.023510343439533957
-0.00025204603925644284
-0.0788996201705399
-0.07295353400911178
-0.07597328885955458
-0.017533787422728066
-0.0024284490707474527
-0.06539653220837097
-0.004005757684538113
-0.05978481940940326
-0.001015825293663544
-0.006759580812484351
-0.0009453602866934467
-0.03213252493940752
-0.00012039532591482508
-0.03148895957352068
-0.0002126390367037543
-0.04068225861520454
-0.03988479103416327
-0.00045935442224294876
-0.03920908532304669
-0.0006629100079378499
-0.09394649992217224
-0.026031095232893247
-0.004867738347426678
-0.008402752884009658
-0.049472304959727056
-0.00030940027246550116
-0.028826519979568022
-0.0004727951466504507
-0.008921912171767488
-0.005266183523281511
-0.019858577620058913
-0.027200431568317644
-0.014116281017966135
-0.0006573337315773593
-0.048100262134306855
-0.0011321829583165425
-0.018489407346359385
-0.0006454051204776455
-4.3026499320958615e-05
-6.284359139986165e-05
-0.0068460959855844205
-0.012792338339000137
-0.046772017435976344
-0.014553432173054548
-0.02460475240176853
-0.07369306196531411
-0.027820790141103852
-0.04014205309801511
-0.007535544635296081
-0.011646715662408332
-0.001212722825167846
-9.53748015390507e-05
-0.020919038729405818
-0.00014946618242402324
-0.016810579002624202
-0.018201871451851908
-0.007977994569204954
-0.020883296878234443
-0.048376472732478436
-0.021550449679793495
-0.00017793353740671496
-0.0002968007212309475
-0.021835036757238677
-0.0915835449797957
-0.007527438558129789
-0.0022826114020444484
-0.06890657070297136
-0.005365984975348286
-0.06368905001631062
-0.05591128077769384
-0.02375611802112242
-0.07527207856152933
-0.012945630101668333
-0.05530138086631639
-0.012795788983829406
-0.007629920497588185
-0.06744003666784361
-0.009999968831839533
-0.05083524166623726
-0.027041988002586143
-0.059756448664208386
-0.00047523701484230516
-0.00018088539260984236
-0.024172011857910524
-0.00046858021587241187
-0.011219419342529327
-0.003936341687064531
-0.08172552185387567
-0.00993014558920854