# vtk DataFile Version 1.0
2D Simulation C++
ASCII
DATASET UNSTRUCTURED_GRID
FIELD FieldData 1
NODES 1 2 int
2209 4256

POINTS 2209 double
0.0 0.0 0.0
0.0 1.0 0.0
1.0 1.0 0.0
1.0 0.0 0.0
0.0 0.02500000037252903 0.0
0.0 0.05000000074505806 0.0
0.0 0.07500000298023224 0.0
0.0 0.10000000149011612 0.0
0.0 0.125 0.0
0.0 0.15000000596046448 0.0
0.0 0.17499999701976776 0.0
0.0 0.20000000298023224 0.0
0.0 0.22499999403953552 0.0
0.0 0.25 0.0
0.0 0.2750000059604645 0.0
0.0 0.30000001192092896 0.0
0.0 0.32499998807907104 0.0
0.0 0.3499999940395355 0.0
0.0 0.375 0.0
0.0 0.4000000059604645 0.0
0.0 0.42500001192092896 0.0
0.0 0.44999998807907104 0.0
0.0 0.4749999940395355 0.0
0.0 0.5 0.0
0.0 0.5249999761581421 0.0
0.0 0.550000011920929 0.0
0.0 0.574999988079071 0.0
0.0 0.6000000238418579 0.0
0.0 0.625 0.0
0.0 0.6499999761581421 0.0
0.0 0.675000011920929 0.0
0.0 0.699999988079071 0.0
0.0 0.7250000238418579 0.0
0.0 0.75 0.0
0.0 0.7749999761581421 0.0
0.0 0.800000011920929 0.0
0.0 0.824999988079071 0.0
0.0 0.8500000238418579 0.0
0.0 0.875 0.0
0.0 0.8999999761581421 0.0
0.0 0.925000011920929 0.0
0.0 0.949999988079071 0.0
0.0 0.9750000238418579 0.0
0.02500000037252903 1.0 0.0
0.05000000074505806 1.0 0.0
0.07500000298023224 1.0 0.0
0.10000000149011612 1.0 0.0
0.125 1.0 0.0
0.15000000596046448 1.0 0.0
0.17499999701976776 1.0 0.0
0.20000000298023224 1.0 0.0
0.22499999403953552 1.0 0.0
0.25 1.0 0.0
0.2750000059604645 1.0 0.0
0.30000001192092896 1.0 0.0
0.32499998807907104 1.0 0.0
0.3499999940395355 1.0 0.0
0.375 1.0 0.0
0.4000000059604645 1.0 0.0
0.42500001192092896 1.0 0.0
0.44999998807907104 1.0 0.0
0.4749999940395355 1.0 0.0
0.5 1.0 0.0
0.5249999761581421 1.0 0.0
0.550000011920929 1.0 0.0
0.574999988079071 1.0 0.0
0.6000000238418579 1.0 0.0
0.625 1.0 0.0
0.6499999761581421 1.0 0.0
0.675000011920929 1.0 0.0
0.699999988079071 1.0 0.0
0.7250000238418579 1.0 0.0
0.75 1.0 0.0
0.7749999761581421 1.0 0.0
0.800000011920929 1.0 0.0
0.824999988079071 1.0 0.0
0.8500000238418579 1.0 0.0
0.875 1.0 0.0
0.8999999761581421 1.0 0.0
0.925000011920929 1.0 0.0
0.949999988079071 1.0 0.0
0.9750000238418579 1.0 0.0
1.0 0.9750000238418579 0.0
1.0 0.949999988079071 0.0
1.0 0.925000011920929 0.0
1.0 0.8999999761581421 0.0
1.0 0.875 0.0
1.0 0.8500000238418579 0.0
1.0 0.824999988079071 0.0
1.0 0.800000011920929 0.0
1.0 0.7749999761581421 0.0
1.0 0.75 0.0
1.0 0.7250000238418579 0.0
1.0 0.699999988079071 0.0
1.0 0.675000011920929 0.0
1.0 0.6499999761581421 0.0
1.0 0.625 0.0
1.0 0.6000000238418579 0.0
1.0 0.574999988079071 0.0
1.0 0.550000011920929 0.0
1.0 0.5249999761581421 0.0
1.0 0.5 0.0
1.0 0.4749999940395355 0.0
1.0 0.44999998807907104 0.0
1.0 0.42500001192092896 0.0
1.0 0.4000000059604645 0.0
1.0 0.375 0.0
1.0 0.3499999940395355 0.0
1.0 0.32499998807907104 0.0
1.0 0.30000001192092896 0.0
1.0 0.2750000059604645 0.0
1.0 0.25 0.0
1.0 0.22499999403953552 0.0
1.0 0.20000000298023224 0.0
1.0 0.17499999701976776 0.0
1.0 0.15000000596046448 0.0
1.0 0.125 0.0
1.0 0.10000000149011612 0.0
1.0 0.07500000298023224 0.0
1.0 0.05000000074505806 0.0
1.0 0.02500000037252903 0.0
0.9750000238418579 0.0 0.0
0.949999988079071 0.0 0.0
0.925000011920929 0.0 0.0
0.8999999761581421 0.0 0.0
0.875 0.0 0.0
0.8500000238418579 0.0 0.0
0.824999988079071 0.0 0.0
0.800000011920929 0.0 0.0
0.7749999761581421 0.0 0.0
0.75 0.0 0.0
0.7250000238418579 0.0 0.0
0.699999988079071 0.0 0.0
0.675000011920929 0.0 0.0
0.6499999761581421 0.0 0.0
0.625 0.0 0.0
0.6000000238418579 0.0 0.0
0.574999988079071 0.0 0.0
0.550000011920929 0.0 0.0
0.5249999761581421 0.0 0.0
0.5 0.0 0.0
0.4749999940395355 0.0 0.0
0.44999998807907104 0.0 0.0
0.42500001192092896 0.0 0.0
0.4000000059604645 0.0 0.0
0.375 0.0 0.0
0.3499999940395355 0.0 0.0
0.32499998807907104 0.0 0.0
0.30000001192092896 0.0 0.0
0.2750000059604645 0.0 0.0
0.25 0.0 0.0
0.22499999403953552 0.0 0.0
0.20000000298023224 0.0 0.0
0.17499999701976776 0.0 0.0
0.15000000596046448 0.0 0.0
0.125 0.0 0.0
0.10000000149011612 0.0 0.0
0.07500000298023224 0.0 0.0
0.05000000074505806 0.0 0.0
0.02500000037252903 0.0 0.0
0.5046333007329523 0.501323399523099 0.0
0.7104521993367764 0.7013280148151455 0.0
0.7010829671251538 0.2934259633407093 0.0
0.29604755631122226 0.7047460432978581 0.0
0.2934819599402418 0.2949508077305965 0.0
0.7749306882117192 0.5044269627418652 0.0
0.5012548154599873 0.22046308608219267 0.0
0.49103372116341704 0.7763785827688197 0.0
0.22183716749803117 0.49544837657254204 0.0
0.8274399556904906 0.8194488941510593 0.0
0.8184520564801396 0.16962518978342836 0.0
0.17904648750964677 0.8282339295160293 0.0
0.16993391020006926 0.17867326700905145 0.0
0.6410600310984123 0.5644553978776308 0.0
0.5623400841591584 0.36600314530478906 0.0
0.4407048113938507 0.632895604152889 0.0
0.36085191456423765 0.4264405649493385 0.0
0.8433410254720357 0.6427567285007244 0.0
0.6430174200188665 0.1542221943637403 0.0
0.3489922249944417 0.8405437738188347 0.0
0.1541095348482487 0.35418035554255695 0.0
0.6471667201622939 0.8403390229348556 0.0
0.8405183229341234 0.35707128670331423 0.0
0.15711760160677493 0.6419287441865082 0.0
0.356907918367554 0.15563841491037503 0.0
0.6722051995019813 0.44753579874131094 0.0
0.5825367470837642 0.6747580345481774 0.0
0.4453762040451568 0.3190968730960508 0.0
0.3274575036878388 0.5544730478834985 0.0
0.8807901207427464 0.53052653155672 0.0
0.530184013738566 0.11179523890976499 0.0
0.4658590218837681 0.8847185928717876 0.0
0.11174338059280056 0.46759000705574205 0.0
0.8962568990533668 0.7409766090574477 0.0
0.7406373693213998 0.10133843368824091 0.0
0.25730741029243753 0.895780756941051 0.0
0.10231651565208623 0.25700105540028473 0.0
0.7439465743275243 0.8817474897629252 0.0
0.1176623403385909 0.743156249211477 0.0
0.880315566256827 0.25531559187874503 0.0
0.2549401363931045 0.11695624230557344 0.0
0.7403926685216228 0.6030138684755537 0.0
0.6078050208197173 0.24989196502693994 0.0
0.39410226206435595 0.7463723870976021 0.0
0.2529840893445687 0.39344092652639806 0.0
0.5225184987607255 0.5905789590150601 0.0
0.8975303336743918 0.8841944165066675 0.0
0.8829626563018768 0.09969781492016007 0.0
0.11453183537042877 0.8983000477598069 0.0
0.09951186552154064 0.1141989136809331 0.0
0.7602350589166369 0.391300609919091 0.0
0.23754160632242427 0.6087187123845608 0.0
0.3893016005286197 0.23472575244403132 0.0
0.8962759123493271 0.43613299408656553 0.0
0.4353240033697037 0.10077041487355529 0.0
0.5637645217238678 0.8927422906652198 0.0
0.10174487745423337 0.5620503753198088 0.0
0.7869736301902538 0.7415115110530212 0.0
0.7408566273707637 0.21066529125859038 0.0
0.2560951488907105 0.7877259146661507 0.0
0.21090493590805398 0.2554446199867917 0.0
0.7197442786232481 0.7993608127914413 0.0
0.7927829673964387 0.28294208209371036 0.0
0.2043779864966429 0.7158556451818083 0.0
0.28649270044958963 0.1997913894859917 0.0
0.5929780532204686 0.49355163829515153 0.0
0.48947696744371116 0.4107842100484557 0.0
0.42431964587097076 0.5452040183600834 0.0
0.6311005425331803 0.7564858139180524 0.0
0.6505678097446811 0.3535270455629794 0.0
0.49467867406793586 0.6907842162373069 0.0
0.3535787857315416 0.6407347330586013 0.0
0.3483493631668515 0.3460924789381306 0.0
0.9146422569612512 0.8145992175391885 0.0
0.8136062128472943 0.0824331638016848 0.0
0.18408215993998034 0.915443795799139 0.0
0.08285778991527339 0.18341317540710747 0.0
0.8264307270115409 0.9090346063442 0.0
0.08975979767042053 0.8273386768402066 0.0
0.9075840405820074 0.17068545720900927 0.0
0.17089891122404688 0.08927927872460374 0.0
0.6971534190860547 0.5171391200516381 0.0
0.6479356294990717 0.6472775963494348 0.0
0.511525385385582 0.30219418560117867 0.0
0.29905830554901697 0.48258551819457235 0.0
0.9163711781943042 0.6064428486495028 0.0
0.6117958383279452 0.08431032653123516 0.0
0.3941626611286916 0.9192028025823052 0.0
0.08182123590261706 0.3858157070878562 0.0
0.6625932367783356 0.9172478303520221 0.0
0.07970745481806712 0.6609235952050629 0.0
0.917952052840072 0.3373084502546187 0.0
0.33661938468541497 0.07979271767498955 0.0
0.8201497298869951 0.4360964076140329 0.0
0.5657381610240776 0.814793379976177 0.0
0.43416742543735315 0.17575595105128208 0.0
0.17738269168417015 0.5630720679244163 0.0
0.432732170869297 0.4566083501293315 0.0
0.81679815231472 0.5691161245915733 0.0
0.5667755416110741 0.18000911355756197 0.0
0.42928529893729356 0.8172153653758483 0.0
0.18017919350180395 0.42993227065991046 0.0
0.7699156263620167 0.6670399732976326 0.0
0.6667868483489985 0.22417267906747254 0.0
0.330322720133862 0.7741195704584718 0.0
0.22517974373823862 0.3297498653285538 0.0
0.9273440162263593 0.6832601317172063 0.0
0.683193993251199 0.07072274144314009 0.0
0.3117767721778904 0.9252543644473898 0.0
0.07251454101815094 0.31028492330761 0.0
0.5603793412891429 0.7384898984943273 0.0
0.6008828198261483 0.418664268350944 0.0
0.37388761506983986 0.4968828338988071 0.0
0.7326160911308595 0.4579614527205098 0.0
0.4546478835488065 0.26116530870329185 0.0
0.2654280945729961 0.5407710414540164 0.0
0.5862941275889545 0.6126619876575313 0.0
0.41694668622546277 0.38516104173512783 0.0
0.5708794917687473 0.5405000496020761 0.0
0.5470762754007388 0.44704698805244103 0.0
0.9324256768488703 0.4952378045942467 0.0
0.49651295314937927 0.06512697087772912 0.0
0.5005384083024731 0.9305739429381269 0.0
0.06522559137237086 0.5014984837971932 0.0
0.8436814942152318 0.49762790829526876 0.0
0.49536890655909477 0.1524417724496261 0.0
0.4977880757694365 0.8405246805858397 0.0
0.15345483344361313 0.5018245812615024 0.0
0.8430959546473205 0.6964659826504225 0.0
0.6968559732031111 0.15423532453058666 0.0
0.29989538035367486 0.8426247935221476 0.0
0.1547160920663807 0.29992969662781316 0.0
0.7701383450886238 0.8363650533242677 0.0
0.8333973897925432 0.22775813763931202 0.0
0.16343671656684922 0.7706843935172865 0.0
0.22731350803130146 0.16311590489978217 0.0
0.7602561496934829 0.32633470796019176 0.0
0.23641023205058317 0.6724629246528706 0.0
0.3251307515394074 0.2356834846168363 0.0
0.6380598581063253 0.30016180805633286 0.0
[...]
POINT_DATA 2209
SCALARS Psi double
LOOKUP_TABLE default
0.0
0.0
0.0
0.0
0.0
0.0
0.0
0.0
0.0
0.0
0.0
0.0
0.0
0.0
0.0
0.0
0.0
0.0
0.0
0.0
0.0
0.0
0.0
0.0
0.0
0.0
0.0
0.0
0.0
0.0
0.0
0.0
0.0
0.0
0.0
0.0
0.0
0.0
0.0
0.0
0.0
0.0
0.0
0.0
0.0
0.0
0.0
0.0
0.0
0.0
0.0
0.0
0.0
0.0
0.0
0.0
0.0
0.0
0.0
0.0
0.0
0.0
0.0
0.0
0.0
0.0
0.0
0.0
0.0
0.0
0.0
0.0
0.0
0.0
0.0
0.0
0.0
0.0
0.0
0.0
0.0
0.0
0.0
0.0
0.0
0.0
0.0
0.0
0.0
0.0
0.0
0.0
0.0
0.0
0.0
0.0
0.0
0.0
0.0
0.0
0.0
0.0
0.0
0.0
0.0
0.0
0.0
0.0
0.0
0.0
0.0
0.0
0.0
0.0
0.0
0.0
0.0
0.0
0.0
0.0
0.0
0.0
0.0
0.0
0.0
0.0
0.0
0.0
0.0
0.0
0.0
0.0
0.0
0.0
0.0
0.0
0.0
0.0
0.0
0.0
0.0
0.0
0.0
0.0
0.0
0.0
0.0
0.0
0.0
0.0
0.0
0.0
0.0
0.0
0.0
0.0
0.0
0.0
0.0
0.0
-0.06003967224857198
-0.09076375178541327
-0.013950826059224403
-0.05717111092646093
-0.01377553804464254
-0.03531467813191708
-0.012141731209554321
-0.09287151754406801
-0.024082835370421902
-0.0690261017899148
-0.0015275698496450625
-0.03779065701905742
-0.002221007580484134
-0.07256244661020833
-0.03243378325808515
-0.07747770246935538
-0.03482049764016367
-0.04069752176687983
-0.00470514115430406
-0.0694871116739179
-0.0073606413448005096
-0.09178359913238883
-0.007449028084449726
-0.02128582407793562
-0.005115955774731056
-0.041331498042568145
-0.0958863792511523
-0.02402383436406897
-0.04823516902418785
-0.014012374924674031
-0.0032716764116913154
-0.07271800648891924
-0.0072099014646658235
-0.032273524340496844
-0.001146422101165793
-0.0512208152838708
-0.0018942049914420598
-0.07453606450584663
-0.01717282042020745
-0.0016334614512999374
-0.0018832090426005625
-0.06518874442470071
-0.013760831944936762
-0.07905741014514503
-0.019361029881135715
-0.07948928426342759
-0.04201310967487594
-9.927443274087835e-05
-0.027500344230646647
-0.00029196352061196896
-0.019844325041055485
-0.036377743810968
-0.012169637182526704
-0.0056941528278586775
-0.00263550466910463
-0.07404718665861072
-0.00839093382468985
-0.07756864249032394
-0.005300315079213427
-0.05307749895633268
-0.0065187371474358805
-0.09323906870719594
-0.006817455709824069
-0.036620886874053245
-0.006344030712586301
-0.058609755728510425
-0.04090708895427951
-0.06151887893124654
-0.10118292710206722
-0.02579338894718413
-0.09116360768852112
-0.06352490842904568
-0.022816764355050104
-0.030442493137464416
-0.00030622223202688076
-0.03995181399924442
-0.0006110076744403879
-0.055965585776687046
-0.015142711822288062
-0.0002614028954287849
-0.0005282771420730077
-0.0536269556584178
-0.08987739217690031
-0.022479328801235703
-0.03466189646420464
-0.011452480712947619
-0.0015804593379509086
-0.056071736207151085
-0.0028246146795984947
-0.06257654868626121
-0.0071121783660405705
-0.0015575225824795784
-0.0013239937099346188
-0.01638687693600182
-0.09522624662096649
-0.007585347061772203
-0.021114891096003417
-0.0464059927994559
-0.0364145359900124
-0.007778289958551254
-0.0825230151382499
-0.013728986907444283
-0.07089374546522213
-0.009120249639960885
-0.06795323171942147
-0.011769413715356877
-0.013787461871662965
-0.0008287638218778218
-0.04870371854821662
-0.0014604243277829294
-0.09961246383047156
-0.041332859179455055
-0.0470352391928253
-0.03474832925237837
-0.016467618579247084
-0.035686607690771005
-0.08578941333365428
-0.03295822728558851
-0.07025333428654455
-0.04910814387767189
-0.0037134532673370846
-0.0012033420588819772
-0.05388871949682988
-0.0031682463484121364
-0.018856128494917905
-0.00599944218966296
-0.0862061689794183
-0.01391887958516872
-0.04986247954689217
-0.0036552938789988975
-0.061912110676180854
-0.005401726910550778
-0.0818194527553047
-0.002549041198446546
-0.03002196856769707
-0.0030202359323374703
-0.012579099905046466
-0.04123505821077887
-0.010203254506724994
-0.01860984166358644
-0.07087506025617218
-0.020432646759100465
-0.05835209302016319
-0.0019063862101422941
-0.004927422912725647
-0.001206274181731669
-0.06347232594829143
-0.08479884372808703
-0.017130636114292903
-1.0656820022057759e-05
-0.02564045797354738
1.570730013063014e-05
-0.07077329626389726
-0.004645009264949796
-0.0009107946670474107
-0.049074466691295546
-0.0020198984798137096
-0.01646194208923092
-0.0003296883378214818
-0.03987773879594072
-0.0005869135199993856
-0.04868498732950798
-0.006358251876687756
-0.00029843582992983313
-0.00046443683841297586
-0.059576279371546845
-0.002116330621048502
-0.04921807243509861
-0.0030768388803942607
-0.0881316807564208
-0.004662897535757634
-0.022591596361889628
-0.004145925523490004
-0.0821635496834002
-0.05952572272604901
-0.03172233748229236
-0.05039373953008632
-0.02192926354785778
-0.09821967935296888
-0.028366795004899144
-0.07400302961846802
-0.014848439524822973
-0.02425539947290054
-0.020751252767983095
-3.289120075658597e-05
-0.03043845075076112
-0.00013058810451353517
-0.04215073059645592
-0.01045523900145824
-3.770660309660632e-05
-0.00016011207354843916
-0.08998434083984135
-0.028926601344289347
-0.019628129818306375
-0.04930159041526202
-0.08740179502130095
-0.02550316368917024
-0.004328861612687589
-0.07397596984684393
-0.007798308988951742
-0.08870127285467376
-0.008264090899879605
-0.05066495236965657
-0.008766159513824832
-0.09812044231210576
-0.05460451512660411
-0.009238968962205833
-0.07627319576772902
-0.0135879038645519
-0.05064551482296184
-0.005273728572869028
-0.0005209730660730118
-0.0006189833460465761
-0.05110968792778809
-0.000439445037837818
-0.03482052352233532
-0.0008353007991098648
-0.015666192293351568
-0.008839310584961643
-0.027622300948980716
-0.08394129383420958
-0.07815758285071998
-0.003199866554550244
-0.04290597164873421
-0.004035153649005249
-0.019690332011563588
-0.05099195081481004
-0.01576633799330051
-0.005431201347066991
-0.08116721818913485
-0.003291323595166482
-0.012732729082153314
-0.09864121246711265
-0.07458498643263177
-0.09670291279503113
-0.05632148718642729
-0.07236537077097216
-0.009045825778973057
-0.0316535899392646
-0.006980125565348525
-0.038914672858551644
-0.024473272389354175
-0.026940913520974455
-0.0014737756140473248
-0.0007153542996003172
-0.04634547047024227
-0.0024751885680795284
-0.07115135483827432
-0.025170286499824168
-0.0011075097238896431
-0.0015916256305543216
-0.009482046060185944
-0.003250597805275467
-0.07632217655141837
-0.008521003466645555
-0.024703435412269093
-0.012039912013283482
-0.030705958096894654
-0.048435744801668096
-0.06240359837204131
-0.0318617818801109
-0.00253152018637159
-0.062130737469310734
-0.004068119054688536
-0.0066947968650498445
-0.0002144696160968859
-0.030994112477500658
-0.0003285630243910873
-0.003718603260131335
-0.00032092220342833653
-0.036594897717773134
-0.0007380834334468572
-0.032096898954146295
-0.09640883242149913
-0.0362910641507071
-0.049129566265562044
-0.05528858705597768
-0.10040833361575408
-0.04962804390541697
-0.001020016466037287
-0.044431699396592764
-0.001643636241863922
-0.0830525282345613
-0.0098151544660537
-0.05970712991696775
-0.01115017821806565
-0.05471142892983462
-0.0002901728983502795
-0.025001457473041864
-0.0006026382457800268
-0.06538752305636075
-0.02550952910612968
-0.09519582260352946
-0.07076470534232042
-0.038007127009571574
-0.042810502460005666
-0.09674406715995379
-0.03295403775952617
-0.03977854811253452
-0.06739724746262861
-0.04206470513058612
-0.04430682409750777
-0.016868004365348764
-0.021032787235650136
-0.03137458513484208
-0.08356933032747568
-0.0923050285889856
-0.010523351991504858
-7.236515260403483e-05
-0.030578759769468344
-0.00017166040179962734
-0.03976344777438463
-0.005158991259983168
-8.443207825827893e-05
-0.0001990732363106869
-0.04251442689917417
-0.051594278119887656
-0.05550735311519042
-0.011999226720189072
-0.018612287268545
-0.024149753272211846
-0.0060851789233854646
-0.08729174959152247
-0.012362613981333013
-0.08105707041064895
-0.015138749862782491
-0.003747509235101471
-0.0029989267048309153
-0.03725749131478323
-0.001937251085637935
-0.0004358523528963906
-0.00036417989858776833
-0.0032167640415477435
-0.0005286099297916682
-0.03536697450695047
-0.0010711139188124736
-0.012567788721196035
-0.005165471133544126
-0.08724235366441616
-0.01426834791316765
-0.029657345826173877
-0.010180110758379131
-0.09195554546100064
-0.005566722005547533
-0.018766274309309588
-0.013379272009256657
-0.07352321207383135
-0.016990724280307484
-0.06606982203550635
-0.015874885216909003
-0.0007777849265277003
-0.0011176496417924344
-0.08542971008065663
-0.03270134661937555
-0.0006437137620085581
-0.045321460510639976
-0.0011278411329512092
-0.026748448998472098
-0.003083281035325166
-0.06708265801311453
-0.0051920406014640584
-0.015158949989445383
8.200330065673228e-06
-0.023317947251232186
-2.453482664178879e-05
-0.006608590429153197
-0.02765741708757057
-1.755771391913839e-05
1.2246416316603933e-05
-0.08242500842706603
-0.058145577862859114
-0.006101593055074706
-0.06703059487862305
-0.008563765886613065
-0.07149137653248284
-0.011979338893207703
-0.0018974727949111162
-0.0018300237786363892
-0.0912042578534949
-0.019505994182913558
-0.060628531728505575
-0.018220810318888697
-0.011134453882557807
-0.019948622695019468
-0.040192418920179704
-0.02767865860482886
-0.023494148801633176
-0.00894264392483614
-0.0209989328767864
-0.010867190545180788
-0.002022260277091941
-0.06323309201991613
-0.004168083314706816
-0.08067859642342332
-0.05005870481431046
-0.06375142202422386
-0.07736894339860664
-0.073070469272992
-0.01834308009127599
-0.022757990766230494
-0.037989470395514625
-0.005929489341097083
-0.07657348668810918
-0.009772280496668515
-0.013888566535800931
-0.009417255607151166
-0.034070985552687234
-0.10094530857610119
-0.04929468826057598
-0.07270398052645517
-0.006740098051839246
-0.06078656339233509
-0.008523218945165134
-0.0015929012691473948
-0.0004108683389095197
-0.03529967457139746
-0.0010115160095534072
-0.07921589277119098
-0.07721598200619725
-0.07939536117768252
-0.03920148180006848
-0.034972632941821694
-0.019538253529707148
-0.043811771527501514
-0.09150578284107358
-0.08972418945125521
-0.08619518529396493
-0.003535261416365942
-0.027917124182810473
-0.0036622852237056815
-0.08787003915094625
-0.00466244280323704
-0.04090861117246561
-0.005206838294586346
-0.05184722166388724
-0.002440335377496457
-0.05483056471836431
-0.0036314882673456127
-0.024423170197545585
-0.0011758891964731555
-0.05291182447405642
-0.0020390527945780305
-0.03264162692987376
-0.01372249561579639
-0.02958909945614416
-0.09736468122085183
-0.014145492096489347
-0.0662753446912212
-0.015796739831660793
-0.0492007747686294
-0.02669230365842215
-0.003976218363585794
-0.00020894954961624677
-0.02822503999563474
-0.00032491077074415744
-0.03803850646113083
-0.03829310671658315
-0.07095584878807405
-0.01582713247276093
-0.0014497442674501493
-0.055235753328601186
-0.002437094937555953
-0.011385953456802886
-0.048748269817754604
-0.010704489535216929
-0.034656131726678564
-0.0001524418078138039
-0.0341478230045567
-0.00037358004346583633
-0.035187492040616185
-0.0019521324727805594
-0.00025977547401071096
-0.0002738993440776177
-0.0010048206384594275
-0.00036201459715139335
-0.03324969447575031
-0.0010290398193350903
-0.006387051681073729
-0.00149375218992949
-0.057834163193422355
-0.0035212887839144278
-0.010746227354618446
3.304857323119389e-06
-0.013851082353861446
4.9637638434070485e-06
-0.08203775283858832
-0.027811486957858587
-0.015618819238902541
-0.03968939564012886
-0.06189874811980488
-0.000644823433039203
-0.029156684671155664
-0.0010971913001860398
-0.03245338156066026
-0.0022106087157112934
-0.00011140675715067668
-0.00017810932072373007
-0.008732851626940364
-0.01795353194528556
-0.02871799727277048
-0.09754671178502596
-0.05321814546172745
-0.06404753483916588
-0.006899097424380443
-0.002085483196905204
-0.0015106164287624689
-0.09329772820486942
-0.09992849963576021
-0.07790480474489314
-0.024113588224944835
-0.0018478654184175965
-0.0022499020568210707
-0.05949299826836685
-0.0007323420711042441
-0.008885573898540618
-0.0009218131125191956
-0.0873679473762261
-0.08872236492807906
-0.019655662155584168
-0.000539495772491079
-0.04434510658588808
-0.0009329341965496622
-0.05566810263736195
-0.003369275026218918
-0.00141757697419308
-0.05943438571952633
-0.004361528278927689
-0.03504161375178729
-0.001363630722990151
-0.0006296574938851232
-0.00035776087597065917
-0.08572607034661776
-0.06554341575756538
-0.08254574191854841
-0.04596073395108169
-0.08457086204213621
-0.007843631277533443
-0.08294706609393414
-0.003833889189231015
-0.012325857831453655
-0.07255033923731855
-0.046083007237580936
-0.020049312464173567
-0.03014597224342956
-0.09960360549044578
-0.016693094359173356
-0.023040042656670364
-0.010087298814548491
-2.325338290236286e-05
-8.187233344948556e-06
-6.280470562818864e-05
-0.0298290940961527
-0.003702620744952554
-0.026782659570371802
-8.003904067419516e-05
-0.024428175520933813
-0.054307489262505046
-0.019059146347113955
-0.06372270758033123
-0.06418531692318467
-0.017629101153528438
-0.04168973883191138
-0.012533856289687192
-0.07944172646041588
-0.05598611362402028
-0.07570344447432409
-0.0020409858809652755
-0.03588682643533043
-0.0027222926303005486
-0.09436879383309923
-0.07050548198564027
-0.0031677817686082818
-0.06787759857872491
-0.0020301694444185697
-0.0491302623365548
-0.04345899580861731
-0.004252322820911182
-0.0028707264628505553
-0.009990273359053791
-0.026074935350519583
-0.0066973959555733835
-0.09117292348514498
-0.0033538748606747075
-0.06643119399967765
-0.0018069774747155548
-0.00666312975697283
-0.02851758033066989
7.570852098602384e-06
-0.023358412345759076
-5.741752159785988e-05
-0.00392784776580137
-7.771880620788423e-05
-0.023874770618369224
-0.00014478285535298217
-0.022491617871329524
-0.02288763425812682
-0.06919748737267702
-0.005856446106266261
-5.856460860218616e-05
-0.02498790004540614
-0.00012639719345023417
-0.03103587526747939
-0.0024662467315317996
-5.448743539592962e-05
-0.00012441086187532237
-0.06618042528849777
-0.04561463485440311
-0.0014105901888436612
-0.049906448957083134
-0.0022004450958002255
-0.014518952805050122
-0.004287160441013606
-0.08001967762595497
-0.010025953101097843
-0.06773166733780742
-0.004331859836241643
-0.056090705392142705
-0.0057740478658665825
-0.00982154253315794
-0.03718967533067827
-0.00852855291940356
-0.05521763064603013
-0.09110554507965732
-0.09056809441841247
-0.02306845965009058
-0.04405174298158622
-0.015401075603485125
-0.04135059538203673
-0.016723352304038454
-2.4048677581136386e-05
-0.00014537118991875768
-0.042644640800084566
-0.00380773119220833
-0.0653834403850568
-0.00582736575654596
-0.08408956572501786
-0.00513936604927716
-0.0470005678606037
-0.0059646954954930215
-0.03343901455021195
-0.08491730511684754
-0.06432255914188585
-0.03439961369020815
-0.03291192481323548
-0.09394457494724127
-0.0006142054085532826
-0.0001100377788606144
-0.020622968775061656
-0.0002589587414533106
-0.05734985769730182
-0.09002320435646774
-0.029635361546853613
-0.05325606442948935
-0.0341337339502871
-0.0049285747622040054
1.3422726641499496e-06
-0.008961488498818327
-0.020103503434597644
-0.01691481414696624
6.903703731538278e-06
8.488318682961943e-06
2.2563741003960736e-06
-0.07030635699936931
-0.005510602330673159
-0.006061500988781084
-0.02800879908933745
-0.022569854202796995
-0.00526289347191488
-0.004777105039011629
-0.10017810243661741
-0.05649491860460274
-0.015936380581485745
-0.05023605347676728
-0.013614969260347484
-0.0428367445112064
-0.09745802594697393
-0.043622458351196595
-0.002410471425204817
-0.05785932516546763
-0.003688537798279061
-0.09455986335948148
-0.01165965902985014
-0.07631764040319872
-0.015940476927466436
-0.09810620409251335
-0.05219274639583254
-0.00681987317099872
-0.07174270945493383
-0.010086525743573433
-0.0493956189104568
-0.01478380397232542
-0.00011503606992756386
-0.00031609126319121964
-0.08201101941737224
-0.02189715895686951
-0.0026732771085338
-0.002812485846474301
-0.07714039124661998
-0.03312808462610303
-0.06549451172134567
-0.09637037258736056
-0.025041594793220143
-0.01480696867763209
-0.02652873965759306
-0.0780784997292962
-0.04340483404767902
-0.019081516267918427
-0.010883869087444055
-0.03216145830489847
-0.0077540217201414454
-0.04141818428967717
-0.007520723930466081
-0.02120520619661276
-0.004499248227233615
-0.008926793844815628
-0.07599987409271565
-0.08697094346175333
-0.033785283778563546
-0.003894992491588896
-0.004206823900507197
-0.021027171743845524
-0.00023116144551378295
-0.03849140481137404
-0.0004588903646527534
-0.05046225538454168
-0.008607251789424572
-0.00023473164399409778
-0.000425866176209947
-0.054571026683080774
-0.026000723064151854
-0.07462612519486898
-0.017928107797791575
-0.006672616975741469
-0.016648956239003424
-0.029436221823244367
-0.0010336568071395325
-0.00028744483590590025
-0.00021155509213548475
-0.09384554420540983
-0.018830860011041152
-0.03247618260387698
-6.30422119951627e-05
-0.00018106959136358542
-0.08085191314058827
-0.006835798255381169
-0.05504841746940264
-0.008075114063761834
-0.06455314438454793
-0.03206816514926594
-0.004454497932628673
-0.07273703023420401
-0.0074536459209643535
-0.08362550464573011
-0.005015627303472929
-0.015093340217064799
-0.00345934013136314
-0.09972894279517812
-0.04831140723123113
-0.09620314073268003
-0.06132992703995746
-0.00046513737117535777
-0.02134731350652136
-0.0008289128980630264
-0.02221388947884111
-0.008321376351882652
-0.054205088067154426
-0.010171596354953608
1.1539334174097313e-06
-0.024066015656237606
-3.1978392658388034e-05
-0.024346515679748913
-0.0033871175499496325
8.091154208572907e-06
-1.8802245515358956e-05
-0.09239747580327855
-0.017559906538440685
-0.008789573322737863
-0.02503672904235442
-0.0600080075067809
-0.0009018148566910608
-0.03704543280840961
-0.0014621729915847072
-0.029804745081590683
-0.0011289959456108358
-0.0023237685747125028
-0.06416293128776751
-0.05788305676000455
-0.01081061803432808
-0.05409134661617958
-0.01105946132475991
-0.0011532693842019092
-0.000134719108479387
-0.024340662513062158
-0.0002771339352865114
-0.08718058922686656
-0.07550416229835238
-0.07951273951071709
-0.02029223195398984
-0.002824556119035654
-0.06703240542291862
-0.005060902461374034
-0.06048073915266792
-0.0011185337028032964
-0.007276414626318417
-0.0010993420153368925
-0.032462306939379064
-7.20357677036895e-05
-0.031157587694131635
-0.00023212116560513064
-0.04914337161042864
-0.04087684047861065
-0.00039988139246852414
-0.039139436946662824
-0.0007691809576703757
-0.09931063410285296
-0.030323329449863518
-0.00584656789589384
-0.01055262607793742
-0.0499897985828769
-0.00024108162175603552
-0.02859544823946916
-0.0005393888892567029
-0.010864649891280031
-0.006542566318520564
-0.023104753237020464
-0.032347291167577834
-0.015513580848698725
-0.0006797682869291726
-0.0484246568448085
-0.00139232804689231
-0.019591103505522862
-0.0006251128801369449
-4.362037144033168e-05
-6.363173997624884e-05
-0.008415427174892826
-0.016051850150491216
-0.05828822328532107
-0.01853660118337399
-0.030925663508134988
-0.08442601683377358
-0.03561482126620697
-0.04637277526227347
-0.009225532771656005
-0.014682318637723043
-0.0014724342169501509
-8.839968048589496e-05
-0.021872343912481676
-0.000169782516923297
-0.021558167456365022
-0.022272148944389565
-0.009956958282863372
-0.025307106165791418
-0.04860537193746098
-0.021419413624325544
-0.0001140493213841544
-0.0003253579352959691
-0.027771733135976185
-0.0963221796605493
-0.008994210085503017
-0.002719039855003692
-0.0707048247858124
-0.0066441020883691955
-0.07635567264538382
-0.0627877953978975
-0.030444462735351438
-0.0800171215693098
-0.01609238600051481
-0.06214570743271783
-0.016295491144953687
-0.009239855459692095
-0.07227188177050929
-0.012698490331565029
-0.061744650371050584
-0.03419926946682875
-0.06966596547967363
-0.0006156978723111287
-0.00020145942393793727
-0.024893179478054375
-0.0005329216277544551
-0.013606331856241298
-0.004795401212828194
-0.08510800348761109
-0.01219201369824853
-0.07494703048841339
-0.058255634041311795
-0.029003874337248284
-0.01548273907187211