# vtk DataFile Version 1.0
2D Simulation C++
ASCII
DATASET UNSTRUCTURED_GRID
FIELD FieldData 1
NODES 1 2 int
2209 4256

POINTS 2209 double
0.0 0.0 0.0
0.0 1.0 0.0
1.0 1.0 0.0
1.0 0.0 0.0
0.0 0.02500000037252903 0.0
0.0 0.05000000074505806 0.0
0.0 0.07500000298023224 0.0
0.0 0.10000000149011612 0.0
0.0 0.125 0.0
0.0 0.15000000596046448 0.0
0.0 0.17499999701976776 0.0
0.0 0.20000000298023224 0.0
0.0 0.22499999403953552 0.0
0.0 0.25 0.0
0.0 0.2750000059604645 0.0
0.0 0.30000001192092896 0.0
0.0 0.32499998807907104 0.0
0.0 0.3499999940395355 0.0
0.0 0.375 0.0
0.0 0.4000000059604645 0.0
0.0 0.42500001192092896 0.0
0.0 0.44999998807907104 0.0
0.0 0.4749999940395355 0.0
0.0 0.5 0.0
0.0 0.5249999761581421 0.0
0.0 0.550000011920929 0.0
0.0 0.574999988079071 0.0
0.0 0.6000000238418579 0.0
0.0 0.625 0.0
0.0 0.6499999761581421 0.0
0.0 0.675000011920929 0.0
0.0 0.699999988079071 0.0
0.0 0.7250000238418579 0.0
0.0 0.75 0.0
0.0 0.7749999761581421 0.0
0.0 0.800000011920929 0.0
0.0 0.824999988079071 0.0
0.0 0.8500000238418579 0.0
0.0 0.875 0.0
0.0 0.8999999761581421 0.0
0.0 0.925000011920929 0.0
0.0 0.949999988079071 0.0
0.0 0.9750000238418579 0.0
0.02500000037252903 1.0 0.0
0.05000000074505806 1.0 0.0
0.07500000298023224 1.0 0.0
0.10000000149011612 1.0 0.0
0.125 1.0 0.0
0.15000000596046448 1.0 0.0
0.17499999701976776 1.0 0.0
0.20000000298023224 1.0 0.0
0.22499999403953552 1.0 0.0
0.25 1.0 0.0
0.2750000059604645 1.0 0.0
0.30000001192092896 1.0 0.0
0.32499998807907104 1.0 0.0
0.3499999940395355 1.0 0.0
0.375 1.0 0.0
0.4000000059604645 1.0 0.0
0.42500001192092896 1.0 0.0
0.44999998807907104 1.0 0.0
0.4749999940395355 1.0 0.0
0.5 1.0 0.0
0.5249999761581421 1.0 0.0
0.550000011920929 1.0 0.0
0.574999988079071 1.0 0.0
0.6000000238418579 1.0 0.0
0.625 1.0 0.0
0.6499999761581421 1.0 0.0
0.675000011920929 1.0 0.0
0.699999988079071 1.0 0.0
0.7250000238418579 1.0 0.0
0.75 1.0 0.0
0.7749999761581421 1.0 0.0
0.800000011920929 1.0 0.0
0.824999988079071 1.0 0.0
0.8500000238418579 1.0 0.0
0.875 1.0 0.0
0.8999999761581421 1.0 0.0
0.925000011920929 1.0 0.0
0.949999988079071 1.0 0.0
0.9750000238418579 1.0 0.0
1.0 0.9750000238418579 0.0
1.0 0.949999988079071 0.0
1.0 0.925000011920929 0.0
1.0 0.8999999761581421 0.0
1.0 0.875 0.0
1.0 0.8500000238418579 0.0
1.0 0.824999988079071 0.0
1.0 0.800000011920929 0.0
1.0 0.7749999761581421 0.0
1.0 0.75 0.0
1.0 0.7250000238418579 0.0
1.0 0.699999988079071 0.0
1.0 0.675000011920929 0.0
1.0 0.6499999761581421 0.0
1.0 0.625 0.0
1.0 0.6000000238418579 0.0
1.0 0.574999988079071 0.0
1.0 0.550000011920929 0.0
1.0 0.5249999761581421 0.0
1.0 0.5 0.0
1.0 0.4749999940395355 0.0
1.0 0.44999998807907104 0.0
1.0 0.42500001192092896 0.0
1.0 0.4000000059604645 0.0
1.0 0.375 0.0
1.0 0.3499999940395355 0.0
1.0 0.32499998807907104 0.0
1.0 0.30000001192092896 0.0
1.0 0.2750000059604645 0.0
1.0 0.25 0.0
1.0 0.22499999403953552 0.0
1.0 0.20000000298023224 0.0
1.0 0.17499999701976776 0.0
1.0 0.15000000596046448 0.0
1.0 0.125 0.0
1.0 0.10000000149011612 0.0
1.0 0.07500000298023224 0.0
1.0 0.05000000074505806 0.0
1.0 0.02500000037252903 0.0
0.9750000238418579 0.0 0.0
0.949999988079071 0.0 0.0
0.925000011920929 0.0 0.0
0.8999999761581421 0.0 0.0
0.875 0.0 0.0
0.8500000238418579 0.0 0.0
0.824999988079071 0.0 0.0
0.800000011920929 0.0 0.0
0.7749999761581421 0.0 0.0
0.75 0.0 0.0
0.7250000238418579 0.0 0.0
0.699999988079071 0.0 0.0
0.675000011920929 0.0 0.0
0.6499999761581421 0.0 0.0
0.625 0.0 0.0
0.6000000238418579 0.0 0.0
0.574999988079071 0.0 0.0
0.550000011920929 0.0 0.0
0.5249999761581421 0.0 0.0
0.5 0.0 0.0
0.4749999940395355 0.0 0.0
0.44999998807907104 0.0 0.0
0.42500001192092896 0.0 0.0
0.4000000059604645 0.0 0.0
0.375 0.0 0.0
0.3499999940395355 0.0 0.0
0.32499998807907104 0.0 0.0
0.30000001192092896 0.0 0.0
0.2750000059604645 0.0 0.0
0.25 0.0 0.0
0.22499999403953552 0.0 0.0
0.20000000298023224 0.0 0.0
0.17499999701976776 0.0 0.0
0.15000000596046448 0.0 0.0
0.125 0.0 0.0
0.10000000149011612 0.0 0.0
0.07500000298023224 0.0 0.0
0.05000000074505806 0.0 0.0
0.02500000037252903 0.0 0.0
0.504599482293319 0.5016128841004862 0.0
0.7095313408972046 0.7013501387847548 0.0
0.7011217773129983 0.2933703355534881 0.0
0.29597304962027937 0.7050427672726368 0.0
0.2936926784670749 0.2946293182648568 0.0
0.774180684020377 0.5042000523883999 0.0
0.5010483081967396 0.22079161881373646 0.0
0.49075437948170736 0.7760268067698717 0.0
0.22173477174708003 0.4947471023891087 0.0
0.82737150390211 0.8196666859981073 0.0
0.8183985052734106 0.16979978345322136 0.0
0.17908870878574146 0.8279009273943515 0.0
0.16930640666955996 0.1786158315770266 0.0
0.6414460950593962 0.5649160639291977 0.0
0.5627284649903965 0.3654431661870635 0.0
0.4400106261270612 0.6329224777186044 0.0
0.36095562126634634 0.4260800006707431 0.0
0.8434473479630933 0.6423592450663982 0.0
0.6428951964370575 0.15442452009384852 0.0
0.349053131561057 0.8407647839676679 0.0
0.154008829953034 0.35391005003317116 0.0
0.6469221417251347 0.840322041343894 0.0
0.8407526026851649 0.35662782785141106 0.0
0.1568322479196828 0.6417642372985581 0.0
0.35686992799622025 0.156133205491735 0.0
0.6719434994454956 0.4480379835977837 0.0
0.5820417194056825 0.6750349769709632 0.0
0.4455113842314077 0.3188363217736402 0.0
0.32679762491644815 0.5545291522301808 0.0
0.8807920482036862 0.5299865212307916 0.0
0.5297193760236237 0.11206685448058352 0.0
0.4652991567921295 0.883880656316311 0.0
0.11172973509247464 0.4674403935463847 0.0
0.896401492608225 0.7406558727030311 0.0
0.7403207083472308 0.10108671243588398 0.0
0.2579026266577007 0.8958689113331797 0.0
0.10224515912746027 0.2570195633605956 0.0
0.7437191729040584 0.8818697350473539 0.0
0.11768268288898089 0.7427734225920667 0.0
0.8797293523723868 0.25522887410590384 0.0
0.2545069388104332 0.117100623890054 0.0
0.7402082113618302 0.6031113845754927 0.0
0.6079117800182965 0.2501988431881084 0.0
0.39400764732948945 0.7465365805608201 0.0
0.2527984302244099 0.39329018399024773 0.0
0.5219584018591761 0.5905178627697479 0.0
0.8974812147007096 0.8840173829952522 0.0
0.8834201117854004 0.09943700187652368 0.0
0.11435154586088267 0.8982033530786855 0.0
0.09906467761394877 0.1143831876415608 0.0
0.7599887340371725 0.3910143199506449 0.0
0.2372746209379807 0.6086687733188892 0.0
0.38921980613664076 0.23461511912523247 0.0
0.8961038764247904 0.43595155816150494 0.0
0.43526228484733304 0.10111782907430074 0.0
0.5634442124947864 0.8933172257895986 0.0
0.1014293953065147 0.5623683867359404 0.0
0.7870062408155083 0.7416133735459098 0.0
0.7403432121770236 0.21029603336444003 0.0
0.25622342542929827 0.7879014746487945 0.0
0.2104248212915832 0.2561414447100436 0.0
0.719332209487512 0.7994893420911962 0.0
0.7924348110508883 0.28215414245521586 0.0
0.2041767592649946 0.715654280639763 0.0
0.2863423226102821 0.200229762015155 0.0
0.5928476412518223 0.49387095160439387 0.0
0.48910644271408427 0.4102863088998567 0.0
0.42378624393794617 0.545383316541392 0.0
0.630724839099856 0.7567451539270459 0.0
0.6504911828988676 0.35342428421044464 0.0
0.4943759759206185 0.6910667346673047 0.0
0.3525959394261803 0.6409732861372888 0.0
0.34844278445288956 0.34587515437172456 0.0
0.9146238704539983 0.814541882957269 0.0
0.8135382766546435 0.08263631921927092 0.0
0.18365904625345164 0.9152059836828399 0.0
0.08240315848374369 0.18356001711680622 0.0
0.8261155465594079 0.9090794430773778 0.0
0.08959012410564833 0.8269481758162558 0.0
0.9078425171205142 0.17086532151475445 0.0
0.17069819175154616 0.08940837291691497 0.0
0.6966670788348223 0.5174046885080271 0.0
0.6472593847897021 0.6474217370673119 0.0
0.5114731978458754 0.30222759401795807 0.0
0.2985972300701883 0.4822089663434986 0.0
0.9163071853409422 0.606369185742353 0.0
0.6119351331238929 0.08421257204614419 0.0
0.3942777509086845 0.9186217226621735 0.0
0.08174779081780117 0.3852608575814178 0.0
0.6629949684426832 0.9174993378417766 0.0
0.08000565132491326 0.660961531975704 0.0
0.9173841901436954 0.3367680778001743 0.0
0.33656089545938384 0.07966034922362694 0.0
0.8199847921058566 0.4359803406767181 0.0
0.5654602973559901 0.8152794338684429 0.0
0.4340531279876074 0.17605297624840188 0.0
0.17696959378187105 0.5636027235915394 0.0
0.43229449565687905 0.4566571248370881 0.0
0.8168845841540967 0.5694204737038786 0.0
0.5670021315171925 0.18041070834521292 0.0
0.4292606761958248 0.8169416401261061 0.0
0.18007998477408135 0.4302245077154904 0.0
0.7698999009794645 0.6669763437287143 0.0
0.6667401233060256 0.22417930179952805 0.0
0.32991762240320155 0.7742905951262788 0.0
0.22480518193522198 0.33015603892413137 0.0
0.9274018718594561 0.6829494864995937 0.0
0.6834032611860775 0.07053201678428317 0.0
0.3112282002729846 0.9248960684194646 0.0
0.07269339140148315 0.31008500039199766 0.0
0.5598193276923891 0.7388946001784318 0.0
0.6007427195806565 0.4184273695536112 0.0
0.37390960256446015 0.4970886205404164 0.0
0.7322811852247219 0.45791758090694584 0.0
0.454257433132888 0.26105909328260274 0.0
0.26585787437935593 0.5406860222654792 0.0
0.5857547011289935 0.6131571049346546 0.0
0.4166374767743785 0.3853177851835437 0.0
0.570885786035662 0.5407846076142673 0.0
0.5469720893807242 0.44737502201553553 0.0
0.9323405266583653 0.49568121337966287 0.0
0.4964502484675252 0.06495687594337743 0.0
0.5000308542988154 0.9301509503200086 0.0
0.06481039933637431 0.5010282785385165 0.0
0.8438717665673658 0.49745862059223156 0.0
0.49545309185215974 0.15247252761166868 0.0
0.49756114109282634 0.8406808268596038 0.0
0.15273542208078564 0.5012197800229072 0.0
0.8426683586316626 0.6966981873073698 0.0
0.6965620239235774 0.15449190051857298 0.0
0.29958890105084335 0.8428014856431215 0.0
0.15515498593752414 0.3003586917944235 0.0
0.7696648300857386 0.8362975672353552 0.0
0.833343214506582 0.22770829569416276 0.0
0.1631391173254617 0.770098692897285 0.0
0.22646767911231544 0.1630775264932823 0.0
0.7599025391465368 0.32628510000847766 0.0
0.23670184965860372 0.672636020838965 0.0
0.3243948062899465 0.23604557190405295 0.0
0.6377985407762464 0.3001884453679003 0.0
[...]
POINT_DATA 2209
SCALARS Psi double
LOOKUP_TABLE default
0.0
0.0
0.0
0.0
0.0
0.0
0.0
0.0
0.0
0.0
0.0
0.0
0.0
0.0
0.0
0.0
0.0
0.0
0.0
0.0
0.0
0.0
0.0
0.0
0.0
0.0
0.0
0.0
0.0
0.0
0.0
0.0
0.0
0.0
0.0
0.0
0.0
0.0
0.0
0.0
0.0
0.0
0.0
0.0
0.0
0.0
0.0
0.0
0.0
0.0
0.0
0.0
0.0
0.0
0.0
0.0
0.0
0.0
0.0
0.0
0.0
0.0
0.0
0.0
0.0
0.0
0.0
0.0
0.0
0.0
0.0
0.0
0.0
0.0
0.0
0.0
0.0
0.0
0.0
0.0
0.0
0.0
0.0
0.0
0.0
0.0
0.0
0.0
0.0
0.0
0.0
0.0
0.0
0.0
0.0
0.0
0.0
0.0
0.0
0.0
0.0
0.0
0.0
0.0
0.0
0.0
0.0
0.0
0.0
0.0
0.0
0.0
0.0
0.0
0.0
0.0
0.0
0.0
0.0
0.0
0.0
0.0
0.0
0.0
0.0
0.0
0.0
0.0
0.0
0.0
0.0
0.0
0.0
0.0
0.0
0.0
0.0
0.0
0.0
0.0
0.0
0.0
0.0
0.0
0.0
0.0
0.0
0.0
0.0
0.0
0.0
0.0
0.0
0.0
0.0
0.0
0.0
0.0
0.0
0.0
-0.05620537973732783
-0.08875827789071075
-0.012970901497941506
-0.05509766962153086
-0.012627414454694385
-0.03362096235112447
-0.011211237194976314
-0.09077187771376768
-0.02230149813620505
-0.06854085906921556
-0.0014939926754398588
-0.03742328764801556
-0.0020522764320165874
-0.06918108757077253
-0.029869132680411293
-0.07380903730534247
-0.032090151554910074
-0.039271116090322
-0.004420415020047373
-0.06853475595083101
-0.006787999548762637
-0.09085276312257846
-0.006977236357858779
-0.02022001444875868
-0.004753025399641034
-0.03885888480012279
-0.09273580735196237
-0.022076114818138558
-0.0451112453419291
-0.013419719973248121
-0.0030688595339578564
-0.07221243080220711
-0.006667651232724708
-0.031702342339110456
-0.0011082203706664305
-0.05104699404222482
-0.0017456683220220012
-0.07428977093286303
-0.01679791408706157
-0.0015891225154031781
-0.0017528023153673665
-0.06283058088048256
-0.012779482550300418
-0.07676056104986473
-0.017756887753544687
-0.07544756198197698
-0.042016945026391896
-0.00011312786385405734
-0.027500423536945793
-0.000278647723285083
-0.01860364833645408
-0.03438794022653786
-0.011153392972938228
-0.005391306269605866
-0.0024649930386396656
-0.0733475388082389
-0.007855001928909911
-0.07642878485844207
-0.005005151435650451
-0.05209760845900198
-0.005998795574082452
-0.09219352741897395
-0.006430106370690007
-0.035322118102031175
-0.005848039599291168
-0.05513324706176092
-0.03775812806601417
-0.057699595207415515
-0.09925692958502287
-0.023844500372553992
-0.08796437060210148
-0.060300901420517715
-0.020923781396749164
-0.030288948215377514
-0.00032020822725183665
-0.039883892823181534
-0.0005729407561187019
-0.05585682346967954
-0.015043773924112363
-0.0002764864569096538
-0.0004991519951237221
-0.05096379903074597
-0.08692149747064472
-0.02069268562444422
-0.03204536164349684
-0.011030063517952255
-0.0014997783760746035
-0.055954500756044134
-0.0025798483852167236
-0.06231694216981401
-0.0068676704162210925
-0.001518482735976377
-0.0012233778749302998
-0.015446389775515698
-0.09373977249090366
-0.006999290215286908
-0.019819090448121777
-0.04300690719796044
-0.034912226807870164
-0.007246809750826122
-0.08107310974658245
-0.012626845404663462
-0.06911272287591116
-0.008527669726672137
-0.06627829047104108
-0.010809174745487775
-0.013440779557767814
-0.000790430539717175
-0.048637087275559654
-0.001355828288246588
-0.097145060349099
-0.03840424568526895
-0.04379168618251467
-0.032714012663331654
-0.015170554544373754
-0.03329400853707202
-0.08222740633236537
-0.030318848323000705
-0.06644422167999489
-0.045734438811037934
-0.00351300135925605
-0.0011174295028434894
-0.053720456135315245
-0.002917942806376043
-0.017878664751128714
-0.00556078696572879
-0.08500380901244768
-0.01281568322177297
-0.04901212865363198
-0.003473158257565964
-0.06112239199810915
-0.0049848284256686255
-0.08133210340002998
-0.002450853592039758
-0.02936696877219293
-0.0027905547492171217
-0.011797701961812382
-0.03945861503275494
-0.009355610169169519
-0.017275693376708735
-0.06815412529492697
-0.018747570113540838
-0.057799133188622655
-0.0018187029093131412
-0.0046705230262789
-0.0011307150418548876
-0.05991127124729183
-0.08182646560530059
-0.017196255261358682
-1.1654527090104633e-05
-0.025765472452909336
1.1233651054200747e-05
-0.06677780066578701
-0.0044670920378604515
-0.0008507485467155769
-0.04908381931503897
-0.001837223949924854
-0.01616976705582908
-0.0003284468864484773
-0.03990597876883188
-0.0005496541966573255
-0.04842434646150699
-0.006272122060068169
-0.00030353459936614726
-0.0004396327030256204
-0.058987945911968105
-0.0020451750359208433
-0.04873433144233597
-0.002827205214927761
-0.0873614836436724
-0.0044101509939970945
-0.021798622824318152
-0.0038617831562069087
-0.0798166573744237
-0.05624932906900066
-0.029214692739776504
-0.048026196197137445
-0.020268492787669685
-0.09584227791078978
-0.026134721016603624
-0.07101232600081808
-0.013738092033438922
-0.022333117182011027
-0.020825363519940486
-4.040885796488019e-05
-0.030502776744018682
-0.00012417885169796562
-0.04194290472112718
-0.010451166941015066
-5.059980536198491e-05
-0.00015525254308331571
-0.0864400188755269
-0.027000321076811957
-0.018030548929240376
-0.04650683673913893
-0.08497472691032455
-0.024402531269636336
-0.004008980549477859
-0.07316489026567095
-0.007170802389760008
-0.08735728882205303
-0.007779004799798685
-0.04911391844388163
-0.008086692278027375
-0.09650752349572256
-0.052601603812831015
-0.008621042630276214
-0.07456832384379745
-0.01248921568571277
-0.050366454926057035
-0.005177843627296664
-0.0005084902756426003
-0.0005842380062031161
-0.05079434101415147
-0.0004527112661808397
-0.0347068631308754
-0.0007893203943879339
-0.014746010829109327
-0.008097952540552
-0.02605155540444847
-0.08022696211827751
-0.077446687024772
-0.003055332136639304
-0.04218013178239251
-0.0037131157508314095
-0.018386929080706216
-0.048579921452276555
-0.014450126234008834
-0.005137865039419446
-0.08035960950789925
-0.003058868720400012
-0.012056928936660608
-0.09714911149359841
-0.0712277937059628
-0.09553175886568559
-0.0525731411408489
-0.06850741821078647
-0.008477910586712462
-0.030402841753582974
-0.006442029803379007
-0.0360738181653554
-0.022621715074636475
-0.024802051255027092
-0.00139657357336773
-0.0006745060352488255
-0.04599352384168774
-0.002335846562515341
-0.07086403145050821
-0.02498258274715801
-0.0010789379796487999
-0.0014847664858470882
-0.008917302719835934
-0.003003701340575235
-0.0755649066053707
-0.00784833088249011
-0.02319895298373785
-0.01112046376201043
-0.028756092607508783
-0.04492143089879525
-0.05863725360571969
-0.030927475319746663
-0.002410814247577496
-0.06159605010479311
-0.0037561427893472916
-0.006436219870837521
-0.0002098486514683456
-0.030969360856394654
-0.00030690995873159727
-0.0035314007883357193
-0.0003057228669090894
-0.03663046022008313
-0.0006843772710633297
-0.029564238802728765
-0.09332811556806622
-0.03384693573450678
-0.04602359565314271
-0.05179786519652479
-0.09789848345739958
-0.04946772734584331
-0.001004057169722368
-0.0442996619631567
-0.0015318474207563588
-0.08134778029520759
-0.00920279817298779
-0.058025767079288824
-0.010218767442519726
-0.0545281350936851
-0.0003025807979992619
-0.02501980328717873
-0.0005653648604249307
-0.06251696023899121
-0.023412231187753443
-0.09240549552461967
-0.06685050172401824
-0.03512924837668919
-0.0398159762885071
-0.09476221097235855
-0.03051763004121409
-0.03666574575038141
-0.06392311305797707
-0.03987280388031957
-0.04172137652513256
-0.015527555296491951
-0.019291598118104866
-0.02910929704916315
-0.08012779402761651
-0.08904532504514649
-0.010470523748813881
-7.975476073263148e-05
-0.030557833901146136
-0.00016117409447359487
-0.03971360322459648
-0.005065687677159621
-9.32734547057593e-05
-0.00019117636950952445
-0.03926621525881245
-0.04957459237957216
-0.0522401430742385
-0.011116682872220368
-0.017106979407891132
-0.023052431462538832
-0.005626761471024323
-0.08578620860602307
-0.011436600481247184
-0.08062096244448007
-0.014488717544834986
-0.0035775443072826557
-0.0027992488929191512
-0.037323599781762085
-0.001860691244879015
-0.0004270619025608639
-0.000337639808490157
-0.003093980955093406
-0.0005135607254463768
-0.035319935217390616
-0.000986964600729351
-0.01195393195681598
-0.004790371021513328
-0.08624816525845258
-0.013268731839930924
-0.02718872774551542
-0.009607632683438469
-0.09079341803280531
-0.005165721982253294
-0.01760663771766613
-0.012432009433389344
-0.07122118943354071
-0.01556801603561038
-0.06593782713655759
-0.0156295752572318
-0.0007713297926436857
-0.0010532585226335379
-0.0820103850634566
-0.03235862875158627
-0.0006445031853540601
-0.045240384989725976
-0.001045429330806737
-0.025952625990995883
-0.0028988016489686665
-0.06643185102169973
-0.0047636560831939906
-0.015225133806187664
3.686105416965462e-06
-0.023372919745493735
-2.428733086007027e-05
-0.00650014736163811
-0.02752524217103929
-1.8705487640842323e-05
7.6264448382918195e-06
-0.08042390367672446
-0.056642814930759275
-0.005727575828949218
-0.06579173865561606
-0.007868868979197034
-0.0713212744405234
-0.011594157185483936
-0.0018106701747585081
-0.0017057978746118703
-0.08871883592278332
-0.01808640364948626
-0.05789971128180572
-0.016711322531778015
-0.010294046544892528
-0.0184038711327012
-0.03834807898169899
-0.02546574756242422
-0.02230654788607173
-0.008290284801338955
-0.019564759983635598
-0.01029406428193448
-0.0018870370346438393
-0.06286182406467851
-0.0038577126906885195
-0.07958689166941293
-0.046566165107075404
-0.06100342717870605
-0.07368118713300449
-0.07070580555210028
-0.01701877041054723
-0.020912461183233397
-0.03660538784908507
-0.005539376306547481
-0.07540291832467012
-0.009006562103622523
-0.013013901105654785
-0.008690408585334148
-0.032513015588493246
-0.09894186481497291
-0.04615332133553722
-0.07138261116870805
-0.006304469259578486
-0.0594960200271628
-0.007819313779475688
-0.001491732357257535
-0.0003818717392249231
-0.03499638213693906
-0.0009398945530990212
-0.07535010608436515
-0.07324103996554214
-0.07647556576456982
-0.03644995467470208
-0.032848827417957395
-0.017958203627654663
-0.04105966578752434
-0.08802789049044403
-0.08682477119373622
-0.085453173456452
-0.003370695898457998
-0.02715470931242136
-0.0034108342602494394
-0.08687360479334612
-0.0044270712223912975
-0.03988940521034106
-0.004791663668810784
-0.051050515786954895
-0.002335661440232464
-0.05439244801006986
-0.003326001353161247
-0.02383135197185204
-0.0011227032760321631
-0.052794810334774366
-0.0018645180080734535
-0.030770762641897
-0.012622881423029161
-0.027580922692956224
-0.09453772326416254
-0.013155977433124721
-0.06399442218584284
-0.01449042291046037
-0.046312448237555176
-0.024514322288546324
-0.003872585508917017
-0.00019990790184505505
-0.028089988714860823
-0.0002968698801663499
-0.0351046920832851
-0.0354106281124611
-0.06745208553458058
-0.015401259172730235
-0.0013746953908892233
-0.055054718327600775
-0.0022576850192199955
-0.010668717967729615
-0.04692790320613859
-0.009814423621019676
-0.03490532190310095
-0.00016596311289329677
-0.03412757680889236
-0.0003532992995668287
-0.03484878543713057
-0.0018857029580560305
-0.0002621124157860087
-0.0002616726651777572
-0.0009399212098176619
-0.0003328813496334042
-0.03303788276146802
-0.0009595229145004444
-0.006068510465785004
-0.001395793954955824
-0.05768167987200211
-0.0032352598756816937
-0.010800290563951799
2.866918182408367e-06
-0.013844149680681678
4.38286304758782e-06
-0.07979950734985886
-0.026065087317045373
-0.014362664892288221
-0.03729252018471986
-0.06174151612235101
-0.000640719562638951
-0.02907235676289457
-0.0010301713536648785
-0.032266291262025334
-0.002243001505915857
-0.00011170470484088943
-0.0001665229340434996
-0.008085852938704986
-0.01656277142677854
-0.0272796685361367
-0.0954284867599803
-0.049596706934877666
-0.06376708278055751
-0.006554720362001242
-0.0019774327174968864
-0.0013872108342288072
-0.09156329594340198
-0.09837064513392317
-0.07760381272572679
-0.0236604823167082
-0.0017841429504638988
-0.0020999141570307097
-0.059346709298144486
-0.0007256005083539429
-0.008654035946459207
-0.0008697366412818452
-0.08544912405266761
-0.08514302580798948
-0.019195874347730825
-0.0005261872778298801
-0.04437118896196599
-0.0008651159336415068
-0.0520231783314797
-0.003192875832289717
-0.001332307775724145
-0.05889568501159734
-0.004077136152590612
-0.034846381043161546
-0.00128549913389366
-0.0005891484592240651
-0.0003355756767104946
-0.08202515891012713
-0.06179825085780977
-0.07974777642665394
-0.04267323908816535
-0.08192479938516456
-0.0074039838524609485
-0.08194351132741651
-0.003570861214816379
-0.011569845325305441
-0.06995036994072824
-0.04288862224277002
-0.018459340839854458
-0.027747627037315408
-0.0977219965688021
-0.015415524497251532
-0.021122484054582395
-0.010123901162224596
-2.8172940989012368e-05
-1.4824216689315975e-05
-6.317589092761706e-05
-0.03003604307078617
-0.0037116394036080585
-0.026829255237155236
-7.849594824280029e-05
-0.022689759916184712
-0.051592833134146185
-0.017458863742018098
-0.059872625842485414
-0.06053996008614804
-0.016494867646163956
-0.03960082505106744
-0.011530793973662664
-0.07629515537551397
-0.05240019243139442
-0.07516877303336157
-0.001976781996091729
-0.035354834861871805
-0.0025351780399341262
-0.09274630252748911
-0.0696121767712281
-0.0030425403883130742
-0.06734155214374898
-0.0019720672836500384
-0.04845963727951166
-0.0430834252666005
-0.003889665889182077
-0.002644133517632345
-0.009416437796000935
-0.0247809227619828
-0.006176363140472378
-0.0887701507531657
-0.003146977906266664
-0.06601647106209733
-0.0016942765145724612
-0.006272454353180291
-0.02860512006692968
-1.1510623245890473e-06
-0.023331340493178886
-5.7634923299483354e-05
-0.003873005516551256
-7.801149219026861e-05
-0.023899981055481488
-0.00013413329127093991
-0.020833614727434353
-0.020958082586295376
-0.0661378448129088
-0.005758959659460086
-6.339696913186387e-05
-0.025316031858271335
-0.00011843003659110088
-0.030740053083679046
-0.0024652642785288276
-6.0779620265463905e-05
-0.00011751077545002481
-0.06286635530067487
-0.04516792651862362
-0.0013569774266271389
-0.04967082225744494
-0.0020368761689147433
-0.013829452752318606
-0.003971325412686232
-0.0791095604166867
-0.009253594459396506
-0.06661448361397887
-0.004092529892301219
-0.0552502122519609
-0.0052750640894848955
-0.009185421056980834
-0.035771267634421997
-0.007845240777785282
-0.05259929178077545
-0.09020756137656251
-0.08973418121070376
-0.02158612764333949
-0.04163066763927137
-0.014106341783239799
-0.04142855633005788
-0.01670863502820639
-3.618930964172434e-05
-0.0001406761637946859
-0.04147269749518728
-0.0035931531707099587
-0.06450779097665468
-0.0053473513730487145
-0.08296237472848453
-0.004862674170887018
-0.04597330170258192
-0.005501978201795679
-0.030806366275455757
-0.08115531121671897
-0.06042646954791812
-0.031714483522350206
-0.030369857770180114
-0.09257883554662395
-0.000565116066026251
-0.00010796507318986689
-0.02107676940746679
-0.0002430480061380765
-0.053868833235445585
-0.08873441383564623
-0.027202785033813535
-0.04966892628725922
-0.03140091857967113
-0.004971315325205186
8.629954847547783e-07
-0.009038760093327906
-0.0198419500274237
-0.016992515938093315
5.559977097378259e-06
7.014247714569841e-06
1.6892525893721062e-06
-0.06643023679056621
-0.00524553826913316
-0.005726633414455921
-0.027091212171017634
-0.02155768328251587
-0.004913936181156858
-0.004413164364072699
-0.09777427338738773
-0.05319722524849928
-0.014888964195905458
-0.04812639338819647
-0.012444283544828929
-0.04003598257211133
-0.09508535348903129
-0.04272730566308264
-0.0022945637007502797
-0.05737452869535944
-0.003402524339400745
-0.09130343744530578
-0.01086544317220474
-0.07430069199130578
-0.01471036106228296
-0.09521558868635777
-0.0504095653456639
-0.006368080760149551
-0.07048815137411062
-0.009237246042143012
-0.049392934334930215
-0.014754480675328908
-0.00013206210453738535
-0.00029930865434828403
-0.08138474596086782
-0.021301636124332456
-0.002541496738556383
-0.0026238921094322992
-0.07395766624452793
-0.03085601419121345
-0.06195868147707258
-0.09509451490586183
-0.023122204025018748
-0.013699015634892939
-0.024511510167100212
-0.07416714434116961
-0.04140628969542175
-0.017853204828556256
-0.010000812068582644
-0.030314909325311064
-0.007304727703452407
-0.04016230518393956
-0.006908328273031062
-0.020252980845504216
-0.004185083182660239
-0.008250743451085773
-0.0734645055156378
-0.08628508799665706
-0.0327766990789404
-0.003708504721898888
-0.003891151666242372
-0.020854845120927584
-0.00023799621496502256
-0.0385280300139115
-0.0004260473292341431
-0.0501863284152697
-0.008450726974770654
-0.0002423810573677761
-0.000407551136608442
-0.05184038018612509
-0.02401121809919797
-0.07055457061131852
-0.016954432446298063
-0.006164808052381218
-0.015435619717212454
-0.029376076966532806
-0.0009853069441368258
-0.0002718705357031736
-0.0001996510850316764
-0.09106649257741554
-0.018938631486962454
-0.032513746614558935
-7.201260499882507e-05
-0.00017270302815366176
-0.07938585728580981
-0.006460358889593034
-0.053684123656713954
-0.007424361585638634
-0.06063746209395634
-0.03095449685441325
-0.004156387808323173
-0.07194962279289716
-0.006848970637083316
-0.08288358440804396
-0.004728966590550579
-0.014361814076533563
-0.003232064628822099
-0.09786423764030554
-0.04496862762782202
-0.09505693805038312
-0.061225710776830054
-0.0004708981389595557
-0.021193700461596188
-0.0007772239974774144
-0.02045356878950544
-0.007988299882618509
-0.05422760973916095
-0.0102885315970839
-2.7015958655093e-06
-0.02423456415937724
-3.055921306235483e-05
-0.024289128004421914
-0.0034202606051547215
4.220057339629558e-06
-1.924707588159388e-05
-0.08901385229006317
-0.01652094604329099
-0.008076489704464703
-0.023534582489051378
-0.05969311349993497
-0.0008878470115724465
-0.03687393418347115
-0.0013576327918110782
-0.027767762445193814
-0.0010497700787798286
-0.0021575731454126865
-0.06191115792878843
-0.055427897366180846
-0.010139126734552743
-0.05240114119753215
-0.010163660341357805
-0.0010956387762513027
-0.00012985235369956686
-0.024188328206682236
-0.0002653745476256282
-0.08494118190849956
-0.0748236715961419
-0.07834341662931361
-0.019536869801558426
-0.0026436199496762034
-0.06661862989388047
-0.004644357998556681
-0.06000070744569344
-0.0010842006631008381
-0.007048207723330387
-0.0010337585336939602
-0.0326780669524279
-8.426434309346922e-05
-0.031231043741829428
-0.0002191348180222011
-0.04611991800081815
-0.04082833624804066
-0.00041546851740326265
-0.039008111346585446
-0.0007255375606574495
-0.09781043785829567
-0.02913027983073421
-0.005459657467581511
-0.009748200853668365
-0.04986455498391976
-0.0002551884014592026
-0.028643565664317385
-0.0005059997729478792
-0.010207115528826157
-0.0060392199599587915
-0.02190073117503839
-0.030837424343672835
-0.015077411467303597
-0.0006588791546437647
-0.048318439185061825
-0.0012754137996059695
-0.01930349512134041
-0.0006130846666715244
-4.4872295225309545e-05
-6.143065103760481e-05
-0.007830343915978574
-0.014783291600999435
-0.05447470716080667
-0.017074760404827673
-0.02856899860759126
-0.08141333875997239
-0.0328752731424957
-0.044465310284666326
-0.008551033246363506
-0.013491575970920364
-0.0014224519104562275
-8.840482685168367e-05
-0.021621780331846047
-0.00015420368266440802
-0.019790251911260034
-0.021054152926106517
-0.009225827466926307
-0.02366671669092539
-0.04847340298686521
-0.021313725001664
-0.00012938048577299297
-0.0003099986954513013
-0.025657001882231332
-0.09486951984718883
-0.008530067275823564
-0.0025254424800110835
-0.07028451468939254
-0.00606859234359551
-0.0724344811740419
-0.06069289516259371
-0.027996912984342565
-0.07840702135753488
-0.014980121174215672
-0.05969843449167576
-0.014972382309029296
-0.00864353012638842
-0.07064549321984963
-0.011676248042910762
-0.05800690601353885
-0.03152828113131133
-0.0661875729634307
-0.000599658010417376
-0.00017902027994021717
-0.02505788163723944
-0.0004983346974355372
-0.012819499765248035
-0.004455546843737945
-0.08411078764164165
-0.011326615038188234
-0.07199546687620313
-0.05451133087249595
-0.02672355187275706
-0.014402040723871601