# vtk DataFile Version 1.0
2D Simulation C++
ASCII
DATASET UNSTRUCTURED_GRID
FIELD FieldData 1
NODES 1 2 int
2209 4256

POINTS 2209 double
0.0 0.0 0.0
0.0 1.0 0.0
1.0 1.0 0.0
1.0 0.0 0.0
0.0 0.02500000037252903 0.0
0.0 0.05000000074505806 0.0
0.0 0.07500000298023224 0.0
0.0 0.10000000149011612 0.0
0.0 0.125 0.0
0.0 0.15000000596046448 0.0
0.0 0.17499999701976776 0.0
0.0 0.20000000298023224 0.0
0.0 0.22499999403953552 0.0
0.0 0.25 0.0
0.0 0.2750000059604645 0.0
0.0 0.30000001192092896 0.0
0.0 0.32499998807907104 0.0
0.0 0.3499999940395355 0.0
0.0 0.375 0.0
0.0 0.4000000059604645 0.0
0.0 0.42500001192092896 0.0
0.0 0.44999998807907104 0.0
0.0 0.4749999940395355 0.0
0.0 0.5 0.0
0.0 0.5249999761581421 0.0
0.0 0.550000011920929 0.0
0.0 0.574999988079071 0.0
0.0 0.6000000238418579 0.0
0.0 0.625 0.0
0.0 0.6499999761581421 0.0
0.0 0.675000011920929 0.0
0.0 0.699999988079071 0.0
0.0 0.7250000238418579 0.0
0.0 0.75 0.0
0.0 0.7749999761581421 0.0
0.0 0.800000011920929 0.0
0.0 0.824999988079071 0.0
0.0 0.8500000238418579 0.0
0.0 0.875 0.0
0.0 0.8999999761581421 0.0
0.0 0.925000011920929 0.0
0.0 0.949999988079071 0.0
0.0 0.9750000238418579 0.0
0.02500000037252903 1.0 0.0
0.05000000074505806 1.0 0.0
0.07500000298023224 1.0 0.0
0.10000000149011612 1.0 0.0
0.125 1.0 0.0
0.15000000596046448 1.0 0.0
0.17499999701976776 1.0 0.0
0.20000000298023224 1.0 0.0
0.22499999403953552 1.0 0.0
0.25 1.0 0.0
0.2750000059604645 1.0 0.0
0.30000001192092896 1.0 0.0
0.32499998807907104 1.0 0.0
0.3499999940395355 1.0 0.0
0.375 1.0 0.0
0.4000000059604645 1.0 0.0
0.42500001192092896 1.0 0.0
0.44999998807907104 1.0 0.0
0.4749999940395355 1.0 0.0
0.5 1.0 0.0
0.5249999761581421 1.0 0.0
0.550000011920929 1.0 0.0
0.574999988079071 1.0 0.0
0.6000000238418579 1.0 0.0
0.625 1.0 0.0
0.6499999761581421 1.0 0.0
0.675000011920929 1.0 0.0
0.699999988079071 1.0 0.0
0.7250000238418579 1.0 0.0
0.75 1.0 0.0
0.7749999761581421 1.0 0.0
0.800000011920929 1.0 0.0
0.824999988079071 1.0 0.0
0.8500000238418579 1.0 0.0
0.875 1.0 0.0
0.8999999761581421 1.0 0.0
0.925000011920929 1.0 0.0
0.949999988079071 1.0 0.0
0.9750000238418579 1.0 0.0
1.0 0.9750000238418579 0.0
1.0 0.949999988079071 0.0
1.0 0.925000011920929 0.0
1.0 0.8999999761581421 0.0
1.0 0.875 0.0
1.0 0.8500000238418579 0.0
1.0 0.824999988079071 0.0
1.0 0.800000011920929 0.0
1.0 0.7749999761581421 0.0
1.0 0.75 0.0
1.0 0.7250000238418579 0.0
1.0 0.699999988079071 0.0
1.0 0.675000011920929 0.0
1.0 0.6499999761581421 0.0
1.0 0.625 0.0
1.0 0.6000000238418579 0.0
1.0 0.574999988079071 0.0
1.0 0.550000011920929 0.0
1.0 0.5249999761581421 0.0
1.0 0.5 0.0
1.0 0.4749999940395355 0.0
1.0 0.44999998807907104 0.0
1.0 0.42500001192092896 0.0
1.0 0.4000000059604645 0.0
1.0 0.375 0.0
1.0 0.3499999940395355 0.0
1.0 0.32499998807907104 0.0
1.0 0.30000001192092896 0.0
1.0 0.2750000059604645 0.0
1.0 0.25 0.0
1.0 0.22499999403953552 0.0
1.0 0.20000000298023224 0.0
1.0 0.17499999701976776 0.0
1.0 0.15000000596046448 0.0
1.0 0.125 0.0
1.0 0.10000000149011612 0.0
1.0 0.07500000298023224 0.0
1.0 0.05000000074505806 0.0
1.0 0.02500000037252903 0.0
0.9750000238418579 0.0 0.0
0.949999988079071 0.0 0.0
0.925000011920929 0.0 0.0
0.8999999761581421 0.0 0.0
0.875 0.0 0.0
0.8500000238418579 0.0 0.0
0.824999988079071 0.0 0.0
0.800000011920929 0.0 0.0
0.7749999761581421 0.0 0.0
0.75 0.0 0.0
0.7250000238418579 0.0 0.0
0.699999988079071 0.0 0.0
0.675000011920929 0.0 0.0
0.6499999761581421 0.0 0.0
0.625 0.0 0.0
0.6000000238418579 0.0 0.0
0.574999988079071 0.0 0.0
0.550000011920929 0.0 0.0
0.5249999761581421 0.0 0.0
0.5 0.0 0.0
0.4749999940395355 0.0 0.0
0.44999998807907104 0.0 0.0
0.42500001192092896 0.0 0.0
0.4000000059604645 0.0 0.0
0.375 0.0 0.0
0.3499999940395355 0.0 0.0
0.32499998807907104 0.0 0.0
0.30000001192092896 0.0 0.0
0.2750000059604645 0.0 0.0
0.25 0.0 0.0
0.22499999403953552 0.0 0.0
0.20000000298023224 0.0 0.0
0.17499999701976776 0.0 0.0
0.15000000596046448 0.0 0.0
0.125 0.0 0.0
0.10000000149011612 0.0 0.0
0.07500000298023224 0.0 0.0
0.05000000074505806 0.0 0.0
0.02500000037252903 0.0 0.0
0.5060140315480259 0.5031976491623485 0.0
0.7118768123267605 0.702470023644041 0.0
0.7028105660998464 0.29526351214289037 0.0
0.297418298402085 0.7064826487156164 0.0
0.29507171696197526 0.29638448623440083 0.0
0.7766898064652605 0.5058737538333278 0.0
0.5027256309245377 0.22224234156186656 0.0
0.49255350506246326 0.7780790351180659 0.0
0.2237382053105204 0.4965924178009992 0.0
0.8289285960642785 0.8215036189716907 0.0
0.8204148521818959 0.17167208835877582 0.0
0.18066750734999001 0.8302904102497173 0.0
0.17109851259105657 0.1802958720024149 0.0
0.6431794301007991 0.566434752000004 0.0
0.5642800479855846 0.36696921607782806 0.0
0.4425206022830772 0.6349408132408275 0.0
0.3627469305220983 0.4279831382695911 0.0
0.8451898861745104 0.6442534799642815 0.0
0.6445183125448783 0.15625391777563408 0.0
0.35102930529654486 0.8419178861511095 0.0
0.15576920462238691 0.3552446207607751 0.0
0.6487075989872176 0.8419209701632312 0.0
0.8421641665406765 0.35899907332079556 0.0
0.15906270289802252 0.6430634872643854 0.0
0.35851553726872026 0.15764968258676268 0.0
0.6739607099382272 0.44943499388812735 0.0
0.5846904223869263 0.6764586744486276 0.0
0.4473274688707489 0.3205034498099289 0.0
0.3293192862157197 0.5560514031461251 0.0
0.882447919916986 0.5322594087909118 0.0
0.5319550501439346 0.11395644980780895 0.0
0.4675511632278777 0.8863864256567078 0.0
0.11379792195519503 0.46954839619392413 0.0
0.8982274854464636 0.7423817567412822 0.0
0.7423596682614723 0.10304115105089491 0.0
0.259441424618269 0.8976703542099633 0.0
0.1039022629166067 0.25863420447968294 0.0
0.7455082829281044 0.8838598465000153 0.0
0.11956642900896411 0.7449025760700592 0.0
0.8821494318742035 0.25712173608829275 0.0
0.25622525644032645 0.118860275971406 0.0
0.7423670407169916 0.6052225484175161 0.0
0.6096676825402674 0.2519145766590619 0.0
0.39539210979285955 0.7481262424046842 0.0
0.2547621074201469 0.3952454558384871 0.0
0.524193475984468 0.591862549296834 0.0
0.899412921236172 0.886203904912157 0.0
0.8848145037571461 0.10167569334505693 0.0
0.11623136611244148 0.9001218099371195 0.0
0.10124644317326202 0.11625289885645247 0.0
0.7618546736825943 0.3930320063053366 0.0
0.23961843997254617 0.6100954082922474 0.0
0.3914038307462375 0.2362677152693948 0.0
0.8980009348574229 0.43795608896817434 0.0
0.43698944982188603 0.10265312840610438 0.0
0.5658062528084037 0.8949552400574834 0.0
0.1030723558758446 0.5637448216799311 0.0
0.788427756240578 0.743009972152099 0.0
0.7430162708442203 0.21202566955022428 0.0
0.2583057191657571 0.789734619379999 0.0
0.21245032881105774 0.2574358873110469 0.0
0.7209823435400613 0.8007903765766639 0.0
0.7943982437623937 0.2839838159265949 0.0
0.20646818830421187 0.7180484205042906 0.0
0.2877509708503141 0.2016362360069018 0.0
0.5947919581871421 0.49533498571350615 0.0
0.49181764499721414 0.4122814849920867 0.0
0.4258243084870051 0.5467170838922504 0.0
0.6325257517254717 0.7586022568123253 0.0
0.6521984538600942 0.3549463683548881 0.0
0.4967188027059455 0.6925230850927981 0.0
0.3550492137464955 0.643154295082372 0.0
0.35022001424597227 0.3476762365887825 0.0
0.9168446786784967 0.8161110620757268 0.0
0.8157423718831125 0.08454729544008964 0.0
0.18576399606786254 0.9171007874917471 0.0
0.08437567477006058 0.185188229901463 0.0
0.8286842161245128 0.910751316428944 0.0
0.09131616466860015 0.8289932050264665 0.0
0.909583506818182 0.17271260474977224 0.0
0.17249643795894629 0.09116041082042109 0.0
0.6989332920532908 0.5187805219032056 0.0
0.649690603627546 0.6490988038343108 0.0
0.5130994221409436 0.3038040021575036 0.0
0.3009219946261425 0.4840753458603242 0.0
0.9178665168594478 0.6087292219698411 0.0
0.6136115789456456 0.08648400571232467 0.0
0.39617454637545946 0.9206033779599389 0.0
0.08336602792314142 0.38739622553172604 0.0
0.6644018438284484 0.9193526191601801 0.0
0.08161804535101327 0.6624652817837501 0.0
0.9198489439734269 0.3391067210713073 0.0
0.33852480337168417 0.0818516509444969 0.0
0.8221969533768922 0.4375714731016463 0.0
0.5675168884125164 0.8166241498466962 0.0
0.43595596459186337 0.1771082874143694 0.0
0.17877912923881673 0.5650314576150786 0.0
0.4344762596675834 0.45829537178263274 0.0
0.8188377483504483 0.571036129283518 0.0
0.569134777349188 0.18164445946135435 0.0
0.4313288535205624 0.8188754527067246 0.0
0.18167262781327267 0.431785954836912 0.0
0.7719707750397008 0.6687482737255942 0.0
0.6685568775254712 0.2266135366029093 0.0
0.33216326546792635 0.7756547196211527 0.0
0.22676269777579636 0.33143682150693243 0.0
0.9291143345570058 0.6851796464007209 0.0
0.6851606972783095 0.07293345274900255 0.0
0.31309757855504494 0.9269121336731926 0.0
0.07449452522840767 0.31171697457206143 0.0
0.5620964656840477 0.7407477791375255 0.0
0.6026121310583905 0.4202314647317994 0.0
0.37575089606326784 0.49876611164795187 0.0
0.7346781567918703 0.45970826222494887 0.0
0.4561936842422423 0.26283237717171276 0.0
0.2672382214406157 0.5423785887122998 0.0
0.5879960221421107 0.6143050831930813 0.0
0.41879270172847133 0.3873482900958307 0.0
0.5725219650492704 0.5421640301458113 0.0
0.5493780726381607 0.44881198088454566 0.0
0.9341935122841858 0.49725135023492023 0.0
0.498598507879994 0.06679492354915277 0.0
0.5025302529794304 0.9323136322626361 0.0
0.06652346899445413 0.502936222324291 0.0
0.8457685460593478 0.49952675090394183 0.0
0.49779937364536203 0.15460522775032548 0.0
0.49972633530753885 0.8425255532480804 0.0
0.15489236852582178 0.5031878249763411 0.0
0.8446284589035925 0.6985622544915566 0.0
0.6982789685525027 0.15623942414961642 0.0
0.30172554147162733 0.8445165034018214 0.0
0.15643171587538324 0.3018123986495976 0.0
0.7717278250230469 0.8379679276954596 0.0
0.8356387126942729 0.22968543101801703 0.0
0.16589384996577214 0.7724917126729955 0.0
0.22858966971858038 0.16483458388477085 0.0
0.7621728645832009 0.3280556787299349 0.0
0.2384768313626739 0.6743716168850072 0.0
0.3264204019597868 0.23786525921392548 0.0
0.6396270020792019 0.3020990505234289 0.0
[...]
POINT_DATA 2209
SCALARS Psi double
LOOKUP_TABLE default
0.0
0.0
0.0
0.0
0.0
0.0
0.0
0.0
0.0
0.0
0.0
0.0
0.0
0.0
0.0
0.0
0.0
0.0
0.0
0.0
0.0
0.0
0.0
0.0
0.0
0.0
0.0
0.0
0.0
0.0
0.0
0.0
0.0
0.0
0.0
0.0
0.0
0.0
0.0
0.0
0.0
0.0
0.0
0.0
0.0
0.0
0.0
0.0
0.0
0.0
0.0
0.0
0.0
0.0
0.0
0.0
0.0
0.0
0.0
0.0
0.0
0.0
0.0
0.0
0.0
0.0
0.0
0.0
0.0
0.0
0.0
0.0
0.0
0.0
0.0
0.0
0.0
0.0
0.0
0.0
0.0
0.0
0.0
0.0
0.0
0.0
0.0
0.0
0.0
0.0
0.0
0.0
0.0
0.0
0.0
0.0
0.0
0.0
0.0
0.0
0.0
0.0
0.0
0.0
0.0
0.0
0.0
0.0
0.0
0.0
0.0
0.0
0.0
0.0
0.0
0.0
0.0
0.0
0.0
0.0
0.0
0.0
0.0
0.0
0.0
0.0
0.0
0.0
0.0
0.0
0.0
0.0
0.0
0.0
0.0
0.0
0.0
0.0
0.0
0.0
0.0
0.0
0.0
0.0
0.0
0.0
0.0
0.0
0.0
0.0
0.0
0.0
0.0
0.0
0.0
0.0
0.0
0.0
0.0
0.0
-0.06071654504328818
-0.09066845334705645
-0.0140620215307715
-0.057676940751498935
-0.014090635490621513
-0.03542542082946868
-0.012385110407436777
-0.09299244346008527
-0.024540925263443196
-0.06845664322195756
-0.001520765196648302
-0.03814315097575184
-0.002295508233677355
-0.07295289614342791
-0.03274575463184393
-0.07821847758814564
-0.03541063579139432
-0.040132931053263106
-0.004770270017296646
-0.06951094307352618
-0.0076067549143480065
-0.09136128720129397
-0.007395995227144007
-0.021726787524724737
-0.005287912926235696
-0.04166819025374035
-0.09626620196603208
-0.024416891610174962
-0.04883528958772925
-0.013802021202988315
-0.003381945227035592
-0.07219917749669516
-0.007463975306981084
-0.03181086742437718
-0.0011583489285205072
-0.05099140339106938
-0.0019721327485722924
-0.07370702543229651
-0.017569963719504953
-0.0016006161003905616
-0.001954467495183452
-0.06531260198412177
-0.013962176483418097
-0.07940777311835222
-0.019790628969659437
-0.0799971277299676
-0.04125410106256018
-9.359754114121916e-05
-0.027721011660421537
-0.00030846252487721576
-0.019929105480886635
-0.036994685149290905
-0.012445577115317246
-0.00559379728479096
-0.0027226961628326147
-0.07314030206479818
-0.00861239022828736
-0.07732339587458303
-0.0052920258816677775
-0.0535156405372151
-0.006711131398855089
-0.09291204001933646
-0.006808287362254237
-0.037175930620107836
-0.0065046061730219444
-0.05917619463851147
-0.041362586735756435
-0.06222164606456003
-0.10118987607295235
-0.02596030306029113
-0.09166193472676093
-0.06411892319891302
-0.02325885200600731
-0.02966158432365778
-0.00030853344404496654
-0.039704211306069506
-0.000640235416393852
-0.05484539629315512
-0.015399438080524222
-0.0002497138430915912
-0.000555000952102947
-0.05389176921707982
-0.09012560307661804
-0.022823457827523957
-0.03521526467751443
-0.011156173019225368
-0.0016424868463746072
-0.05537478982051533
-0.002927277993613314
-0.06134566582625743
-0.007375625715136757
-0.001512859028181508
-0.0013754130062284368
-0.0162534757166976
-0.09504635669376632
-0.0077338571723763495
-0.021550429849459
-0.04706247971657506
-0.03616078780218336
-0.007932054318228304
-0.08257819664801597
-0.014036435759622958
-0.0707407389574196
-0.00925087373077153
-0.06831413571083467
-0.012076171137952087
-0.01326783597953427
-0.0008583290304522117
-0.04791157426353869
-0.0015335673563147592
-0.0998273831559641
-0.041688336710946176
-0.04781305490894227
-0.03485195549471119
-0.016819032070977628
-0.036263713047750674
-0.08628600362567684
-0.0335619911832302
-0.07092168965281631
-0.04961879788575226
-0.0035459868925794636
-0.0012630645547090542
-0.05269238512198904
-0.003290021774819517
-0.018691757798431723
-0.006159987908835265
-0.08592909496379789
-0.014243993071644525
-0.04962186789765505
-0.003710964512217217
-0.06196200961886301
-0.005562342803448291
-0.08128186817292658
-0.002531194631103451
-0.030550085449078244
-0.0031041033370934395
-0.012633674580370251
-0.04178428937332106
-0.010471837549776352
-0.018827344750389288
-0.07134810145333212
-0.020886776693509797
-0.056924618449953404
-0.0018610209039621084
-0.005183207174209829
-0.001260868418325222
-0.0641584182132898
-0.08528057330392216
-0.017377988264103528
-1.1430418895889873e-05
-0.024783236910325208
1.73381750687557e-05
-0.07139252839310765
-0.00438706631300115
-0.0009610593478885823
-0.04789508443819966
-0.002119006917198549
-0.015948536125307725
-0.00033551790562617975
-0.039229234586391944
-0.0006257255064512589
-0.04712841542254853
-0.006616712067014133
-0.0002807372563587612
-0.0004957917416716372
-0.05909691094011142
-0.00212687681433831
-0.049407681270825246
-0.0031816723044610132
-0.0876063771749299
-0.00460689162383732
-0.023013856489797414
-0.004279664796845489
-0.08225358228813368
-0.059940190285603975
-0.0321980830066258
-0.050277239373244416
-0.02221215550727317
-0.09839621603856315
-0.02890642431165978
-0.07434212866709325
-0.015101590887883374
-0.024651700427885316
-0.020152733342432397
-3.0111113563717695e-05
-0.030072697956073827
-0.00013926546053590568
-0.04108434128578105
-0.010732368133558885
-3.232181599120958e-05
-0.00017003357562074813
-0.09053226018610203
-0.02909757653361994
-0.020045262990041897
-0.0499402563773299
-0.0877921324222043
-0.025136956576522883
-0.004417513630748878
-0.07380422983405382
-0.008031064336294842
-0.08866058639194746
-0.008303793645539757
-0.05117474424871705
-0.009016828735979546
-0.09799250604866963
-0.05434741639503162
-0.009402156664540497
-0.07642341873791511
-0.013936862916115731
-0.049314760145532884
-0.0055360167187439744
-0.0004979934017423219
-0.0006538549659872759
-0.050207553866079765
-0.0004379105180828062
-0.03508442352885652
-0.0008840354706043961
-0.015647420617304043
-0.009022096504967273
-0.02810294810393918
-0.08456257612252414
-0.07788031595460519
-0.0032041624461142003
-0.04325135137762072
-0.0041577881916246996
-0.019821526895166117
-0.051612017334552784
-0.016090222447035046
-0.005332057562846139
-0.08052921975863535
-0.003386124510654054
-0.013099119446105659
-0.09846274063136391
-0.07508240583012123
-0.09643497697672852
-0.057006455559634614
-0.07312458754535084
-0.009036877754208987
-0.032182206716315
-0.007191032141096371
-0.03941265895912579
-0.02469767286319571
-0.027474058654575004
-0.0013935976329304076
-0.0007643008997936566
-0.04498767036660443
-0.0025884744821027773
-0.07056283267812993
-0.02562290411303801
-0.0010874627546803707
-0.0016556348759121048
-0.009239633003469968
-0.003350338725370851
-0.0755743266198983
-0.008721560096410395
-0.024672647495739802
-0.012355536108662902
-0.031298001898054095
-0.04911771851559444
-0.06303015178728924
-0.031235248712330084
-0.0025942802647001425
-0.06195351870262445
-0.004247604582091917
-0.006242608251811051
-0.00022195252311664332
-0.029837209837165816
-0.0003492780750419058
-0.0034522449762393404
-0.0003386475647764505
-0.03533198235861236
-0.0007827218731143959
-0.03260039239364653
-0.09679787890231789
-0.036604833063624144
-0.049540441041947915
-0.05603050083317661
-0.10063516916497345
-0.049125831072281724
-0.0010238059665556589
-0.04458629043461527
-0.001717021520739722
-0.08289347537193159
-0.009886603924078982
-0.060230970708396586
-0.011429361953661194
-0.053916754655583564
-0.00028237242900612725
-0.025345058257819398
-0.0006317022760214207
-0.06573584153525408
-0.025962494425568295
-0.09547581963177684
-0.0714916790413588
-0.03862862315811596
-0.043437090363430735
-0.09679836362309123
-0.03324651416254373
-0.04035747009063517
-0.06798026177427714
-0.04224775336296121
-0.04451278445526086
-0.017169226290144352
-0.02136264637697206
-0.03194447969590955
-0.08390567111074758
-0.09267058997273539
-0.010075047904074545
-7.307837870268715e-05
-0.029609394967126588
-0.0001837557679671812
-0.03859987846597732
-0.005333795794332188
-7.69246864426797e-05
-0.00021563047796416146
-0.04317728032569499
-0.05151882145809138
-0.05619282048874358
-0.012181960743148021
-0.01906411713010078
-0.024022308462009836
-0.006200530518920391
-0.08733358801556115
-0.012674062304586032
-0.0804777997027077
-0.015548503314062071
-0.003745947022454727
-0.0031152812300805762
-0.03633396214550628
-0.002049557653472659
-0.00041626149122853064
-0.00039133287480692133
-0.0030531832845327976
-0.0005644972826014543
-0.03438196760278782
-0.001137516529188448
-0.012511765257998967
-0.005311759099132655
-0.08684012704022273
-0.014587404309821713
-0.030164576761885522
-0.010120450535561504
-0.09159323724821224
-0.005705299952535493
-0.019143107511348286
-0.01356001584633786
-0.07392064788756186
-0.01736593257734957
-0.06527951099303998
-0.01612543052663537
-0.0007550978837686151
-0.0011618375478668625
-0.0860323573768245
-0.03209391554245869
-0.0006576526205661329
-0.045081928421913255
-0.0011693545901737888
-0.026225340127133824
-0.003181228768952392
-0.06688631763712721
-0.005324647371458703
-0.014526104083052225
1.0313773292107403e-05
-0.022839201942816238
-2.5022800929347057e-05
-0.006945533882981171
-0.026416556041293116
-1.865484071514248e-05
1.3246045155255398e-05
-0.08266001984665287
-0.05767884999070781
-0.006172791458811399
-0.06717231747722939
-0.008797616126396034
-0.07065889813343086
-0.012282123342094166
-0.0018479418220319638
-0.001894638888327493
-0.09127326438460556
-0.01961543964465976
-0.061188927045148396
-0.018581664039955748
-0.011337978057336412
-0.020379951104303476
-0.040106740498382226
-0.028005373445316083
-0.023461180269890615
-0.009123720064520955
-0.02144140117214635
-0.010534299924649297
-0.002104707533705866
-0.0627038700623167
-0.004359574990986655
-0.08054248208915257
-0.050858124547490724
-0.06386488696667231
-0.07788883592525542
-0.07313195275372139
-0.018604818887293203
-0.023198499549967277
-0.03766235025307518
-0.0060634170483788935
-0.07662555187870952
-0.01002940917121216
-0.013927923362419012
-0.009680699351518036
-0.034686958527344214
-0.10097236080747422
-0.04990500136270558
-0.07238374044014653
-0.006777326688398949
-0.061095792052075514
-0.008722877366998429
-0.0014898619251934207
-0.0004276451370994744
-0.033918344770425
-0.001090723771574613
-0.07979643929033967
-0.07783661480581276
-0.07985456288517348
-0.03976978180205257
-0.03524068060952495
-0.01991545947589475
-0.044456931104710856
-0.09194726901382692
-0.09012031859199847
-0.08564641224462788
-0.0035049121572671422
-0.02843857536417121
-0.0037750181293097554
-0.08747971575799078
-0.004644892429956115
-0.041321350845890004
-0.005351005987677824
-0.051458895505752125
-0.0024682850972704957
-0.054953194752734885
-0.003727146919238266
-0.0239626038790556
-0.0011982616087751463
-0.05259314692810778
-0.0021230546427224756
-0.032719906711501746
-0.013989313591437427
-0.030095827458287174
-0.09771115667602161
-0.014333054205588669
-0.0666452279695246
-0.01621030372458302
-0.04949928164707021
-0.02714812291426593
-0.0036789836030770833
-0.0002191427406761691
-0.02701698482649728
-0.0003507708564200703
-0.03863932440455523
-0.03872027846427004
-0.07159081690602925
-0.015478987642918595
-0.0014974566930192365
-0.05462615767840165
-0.002553831871513846
-0.011432113793040292
-0.049366151645062986
-0.010960912757713886
-0.034206146726545074
-0.00014891879909808165
-0.0340680087471503
-0.0003993577258215592
-0.033407549787080396
-0.0020555993202618535
-0.00024181782379524818
-0.0003008499264027533
-0.0009312192567167472
-0.00037843619089728263
-0.03167018143690039
-0.0010868953858335939
-0.0061810624771607555
-0.0015683870784584386
-0.056998710028692195
-0.0036743447989296594
-0.01073790526586792
4.057156503619096e-06
-0.013155022917026166
5.19527343850258e-06
-0.08203639392716927
-0.027894424136185467
-0.01597064691517862
-0.040389431403588444
-0.06124403548818195
-0.0006342474649918391
-0.029689324195437045
-0.0011445876883351166
-0.03076838188990896
-0.002386939853693885
-0.00010302829241676333
-0.00019197971444448984
-0.00893299689968673
-0.018377824716116136
-0.028624269219122585
-0.0975571828475217
-0.053859428116749396
-0.06286659253419292
-0.0071669244899406
-0.00201727579038035
-0.0015725303904347413
-0.09334258436876783
-0.09977877960947112
-0.07715287341287994
-0.024627600285205057
-0.0018109715651413584
-0.002329013775285054
-0.0584655086029347
-0.0007131164992748256
-0.009149064780560033
-0.0009618636875085405
-0.08752511444038333
-0.08923305047761118
-0.018971242337201183
-0.000549736310296981
-0.04365474774417531
-0.0009939627135515509
-0.05620738871227331
-0.0032450628227507676
-0.0014859021331134392
-0.058358118515357146
-0.004511612698394739
-0.03340022590406918
-0.0014520939162050548
-0.0005969356935200885
-0.0003772594801109736
-0.08636785201833572
-0.06627688431768515
-0.08290356085995637
-0.046562108392836345
-0.08496278021954913
-0.007718500397123924
-0.08227577381242597
-0.0039430952698483596
-0.012720475595041629
-0.07268172149626705
-0.046579839912584645
-0.020308237017738467
-0.03065859165522006
-0.0996075338704766
-0.01696938872527409
-0.023435210960279628
-0.009781995331515634
-2.148376244347733e-05
-6.144573868324623e-06
-6.820664787185696e-05
-0.028568911490646904
-0.00383379217997293
-0.025879910408932633
-8.60599897932126e-05
-0.024512101140939258
-0.05497015269984501
-0.019405887617866404
-0.06445332215347017
-0.06483133846564766
-0.017742833991150415
-0.04223834326298278
-0.012853901642033672
-0.08002808308337256
-0.05672024898464319
-0.07519968262835981
-0.002033504206577213
-0.03622780740669451
-0.0028159964819728734
-0.09432196381663262
-0.07004569528472482
-0.003199300422499993
-0.06750156278207332
-0.0020274411956643424
-0.0493706255835933
-0.04384792982165818
-0.004365075824790485
-0.002962120107246715
-0.009980199093704827
-0.026572551347609292
-0.006879151003730776
-0.09140667091613718
-0.003250934550701762
-0.06546372806499887
-0.0019142805347295343
-0.00692470628229058
-0.027704274847585614
1.0314940338708243e-05
-0.023383558797969647
-6.097129826012145e-05
-0.0036882928728578126
-8.138855075307727e-05
-0.022664818472962818
-0.00015494171156334543
-0.02281236199249161
-0.02330770936919663
-0.0697688786199047
-0.0055030766643773005
-6.11520793553527e-05
-0.024109856803420017
-0.000135267146244226
-0.029490838867984398
-0.0026032902905069257
-5.0860801987110366e-05
-0.0001318095114045431
-0.06660368968036413
-0.04516573239156096
-0.0014133264797781015
-0.04993563032797864
-0.002279082259177877
-0.014315290871055127
-0.004403726695431971
-0.0796863384260604
-0.010292244007797137
-0.0673767001334598
-0.004343840603517437
-0.056305074330981066
-0.005902657242158252
-0.009789732498015508
-0.037729127482868705
-0.008778926076646557
-0.05543533184330654
-0.09066960202959726
-0.09014851455795173
-0.023262478615603124
-0.04468374275948319
-0.015727610714512112
-0.04063382144772265
-0.017093727638271657
-1.9038942205251075e-05
-0.0001544676520793315
-0.04203607806054982
-0.0038795284971745955
-0.06533159124087515
-0.006023178279855275
-0.08370731009075844
-0.005158207550718706
-0.04740185502319207
-0.006145235065173125
-0.033931737762192514
-0.08556095525432061
-0.06506064582596953
-0.03475378616837086
-0.03354904193583411
-0.09372960528753879
-0.0005849242317893387
-0.00011746355156712536
-0.019762879151857444
-0.0002714709667384275
-0.05804702868786471
-0.08981359879403242
-0.03009665032203486
-0.05394140545584667
-0.03466700557587352
-0.00523832358677349
2.0115125378557885e-06
-0.00858891355887508
-0.019073095220045758
-0.01644014705907728
6.964790297029744e-06
9.147302179979926e-06
3.194603657585264e-06
-0.07093710984898924
-0.005508906419222206
-0.006059284649934198
-0.02849758937171279
-0.022983269313302242
-0.005427157999188601
-0.00492261263860419
-0.10033691869337046
-0.05697474503388623
-0.01599608940964511
-0.050821954146707
-0.013904717439714024
-0.04321132974746669
-0.09768103519898075
-0.04300393382283204
-0.0024382702687261956
-0.057808611760473756
-0.003813177523579201
-0.09499926306510786
-0.01184541752250931
-0.07666057574502985
-0.01637698900517947
-0.09843900169489962
-0.05191323505976809
-0.006922747083009131
-0.07197306685568723
-0.01031729356761828
-0.04856802125220397
-0.015123560427804468
-0.00011044894136604079
-0.00033257459593878875
-0.08129978421781842
-0.022324887602658047
-0.002631546595054296
-0.002908186621013064
-0.07757436541157091
-0.03329809698128264
-0.06605697678013456
-0.09616879036847625
-0.025364425427153687
-0.015068607616159227
-0.027004384279521298
-0.07878101854952393
-0.043580070301219694
-0.019107423150265583
-0.011127042187274677
-0.03278257625706572
-0.007753692384220984
-0.04198970376817356
-0.007737421956861172
-0.020877844955154892
-0.004624413243147882
-0.009179413073709137
-0.07649621105247927
-0.08651548559940488
-0.034193446840964016
-0.00385358433081428
-0.004330315790092588
-0.020349708171582263
-0.00023154560902674366
-0.0380313789462651
-0.0004846970380323665
-0.04899301509029596
-0.008783697848839568
-0.00022097253977003753
-0.0004546775324355636
-0.05512978152004083
-0.026402500471187813
-0.07523174759117587
-0.017817350302570232
-0.006863382658233287
-0.0170305555115282
-0.028172330130674925
-0.0010854629559751503
-0.0002704131467283179
-0.00022728873244290797
-0.09414788948942758
-0.018373347350217045
-0.03191004988248933
-6.01544187747559e-05
-0.00019142968319986575
-0.08068510017081816
-0.006889717134297097
-0.05541595733426756
-0.008288840265877498
-0.06519157081267064
-0.03177648092486565
-0.004551207577143136
-0.07269171510334782
-0.007677371778774524
-0.08306520548042368
-0.0049499731360705046
-0.015518141234791854
-0.0035907499021492254
-0.09971131902388153
-0.049004675048705974
-0.09587324576217665
-0.060535510743011854
-0.0004496240906393513
-0.0217126815579298
-0.0008614784276230809
-0.022689501354227024
-0.008057925384189608
-0.05345115430774405
-0.009687431871623195
3.085905510878906e-06
-0.023323694443884203
-3.327765363129776e-05
-0.02332998486962582
-0.003500192836143048
8.824586005068666e-06
-1.927234731074248e-05
-0.09289807854835527
-0.017472184876696866
-0.009001888495185656
-0.025569466438501803
-0.05942007629239541
-0.0008955708799859691
-0.0373379896612714
-0.0015160351519450238
-0.03000241656152341
-0.001186801203714953
-0.0024594941485921035
-0.06398172459017552
-0.057950204126002554
-0.010852290571257717
-0.05461536040767854
-0.011355343904829986
-0.0010902722967316273
-0.00014084992168013962
-0.023000656344007143
-0.00029115722289258325
-0.08723888649180496
-0.07527895893561784
-0.07937882441870962
-0.01986683250245415
-0.002899578527541991
-0.0667551312303097
-0.00523563017132569
-0.059212652471765256
-0.001087175678100107
-0.007580010136754269
-0.0011632911738266817
-0.0318042933465123
-6.964720975802233e-05
-0.031102656501623662
-0.0002484778819729064
-0.04974686417310131
-0.0402234738638277
-0.0004015627204138293
-0.03911292464198898
-0.0008045935110385784
-0.09914995545984703
-0.030131642592142516
-0.005955950828088876
-0.010867331022369574
-0.049235319110227715
-0.00023605985106874933
-0.028925836652191533
-0.000560304959754947
-0.010823111832269389
-0.006700561976262747
-0.023607787384261395
-0.03213477859165829
-0.014945543708275756
-0.000700974643521337
-0.04780306747717822
-0.001445777832641715
-0.01816617117315641
-0.0006437105841999256
-4.1060608043622556e-05
-6.804905459199474e-05
-0.008582072400800724
-0.016417355099042068
-0.05890069711372068
-0.018823966569941165
-0.03141375849940735
-0.08481733180188726
-0.036093872687813555
-0.04610952670933686
-0.0093749228180471
-0.015127730267153807
-0.0013918604977275068
-9.556367236695121e-05
-0.020792409888025297
-0.0001749396029358858
-0.021980337744365024
-0.02224042566064389
-0.010203315408931289
-0.025813985372366264
-0.04784569530567311
-0.021643284924813638
-0.00010615148328437193
-0.0003447909250724978
-0.02808141041475654
-0.09605256737697025
-0.0087762067423858
-0.002802921725823769
-0.0700285998901081
-0.0068666553380112
-0.0770338632505624
-0.06246534528522241
-0.031001832861037467
-0.08017980003755391
-0.01623788452732712
-0.0626271789127909
-0.01664981684232413
-0.009384080507060908
-0.0726295150462731
-0.013030113078135674
-0.062372980906347436
-0.03480296064784695
-0.07012939473105041
-0.0005705888114313139
-0.00020920347172317632
-0.02387970385625465
-0.0005648823725170015
-0.013453960721342284
-0.004928455566985656
-0.0846807863270343
-0.012520762741218522
-0.07540140904204477
-0.059010631370019544
-0.02955429601386644
-0.015711879410634084