# vtk DataFile Version 1.0
2D Simulation C++
ASCII
DATASET UNSTRUCTURED_GRID
FIELD FieldData 1
NODES 1 2 int
2209 4256

POINTS 2209 double
0.0 0.0 0.0
0.0 1.0 0.0
1.0 1.0 0.0
1.0 0.0 0.0
0.0 0.02500000037252903 0.0
0.0 0.05000000074505806 0.0
0.0 0.07500000298023224 0.0
0.0 0.10000000149011612 0.0
0.0 0.125 0.0
0.0 0.15000000596046448 0.0
0.0 0.17499999701976776 0.0
0.0 0.20000000298023224 0.0
0.0 0.22499999403953552 0.0
0.0 0.25 0.0
0.0 0.2750000059604645 0.0
0.0 0.30000001192092896 0.0
0.0 0.32499998807907104 0.0
0.0 0.3499999940395355 0.0
0.0 0.375 0.0
0.0 0.4000000059604645 0.0
0.0 0.42500001192092896 0.0
0.0 0.44999998807907104 0.0
0.0 0.4749999940395355 0.0
0.0 0.5 0.0
0.0 0.5249999761581421 0.0
0.0 0.550000011920929 0.0
0.0 0.574999988079071 0.0
0.0 0.6000000238418579 0.0
0.0 0.625 0.0
0.0 0.6499999761581421 0.0
0.0 0.675000011920929 0.0
0.0 0.699999988079071 0.0
0.0 0.7250000238418579 0.0
0.0 0.75 0.0
0.0 0.7749999761581421 0.0
0.0 0.800000011920929 0.0
0.0 0.824999988079071 0.0
0.0 0.8500000238418579 0.0
0.0 0.875 0.0
0.0 0.8999999761581421 0.0
0.0 0.925000011920929 0.0
0.0 0.949999988079071 0.0
0.0 0.9750000238418579 0.0
0.02500000037252903 1.0 0.0
0.05000000074505806 1.0 0.0
0.07500000298023224 1.0 0.0
0.10000000149011612 1.0 0.0
0.125 1.0 0.0
0.15000000596046448 1.0 0.0
0.17499999701976776 1.0 0.0
0.20000000298023224 1.0 0.0
0.22499999403953552 1.0 0.0
0.25 1.0 0.0
0.2750000059604645 1.0 0.0
0.30000001192092896 1.0 0.0
0.32499998807907104 1.0 0.0
0.3499999940395355 1.0 0.0
0.375 1.0 0.0
0.4000000059604645 1.0 0.0
0.42500001192092896 1.0 0.0
0.44999998807907104 1.0 0.0
0.4749999940395355 1.0 0.0
0.5 1.0 0.0
0.5249999761581421 1.0 0.0
0.550000011920929 1.0 0.0
0.574999988079071 1.0 0.0
0.6000000238418579 1.0 0.0
0.625 1.0 0.0
0.6499999761581421 1.0 0.0
0.675000011920929 1.0 0.0
0.699999988079071 1.0 0.0
0.7250000238418579 1.0 0.0
0.75 1.0 0.0
0.7749999761581421 1.0 0.0
0.800000011920929 1.0 0.0
0.824999988079071 1.0 0.0
0.8500000238418579 1.0 0.0
0.875 1.0 0.0
0.8999999761581421 1.0 0.0
0.925000011920929 1.0 0.0
0.949999988079071 1.0 0.0
0.9750000238418579 1.0 0.0
1.0 0.9750000238418579 0.0
1.0 0.949999988079071 0.0
1.0 0.925000011920929 0.0
1.0 0.8999999761581421 0.0
1.0 0.875 0.0
1.0 0.8500000238418579 0.0
1.0 0.824999988079071 0.0
1.0 0.800000011920929 0.0
1.0 0.7749999761581421 0.0
1.0 0.75 0.0
1.0 0.7250000238418579 0.0
1.0 0.699999988079071 0.0
1.0 0.675000011920929 0.0
1.0 0.6499999761581421 0.0
1.0 0.625 0.0
1.0 0.6000000238418579 0.0
1.0 0.574999988079071 0.0
1.0 0.550000011920929 0.0
1.0 0.5249999761581421 0.0
1.0 0.5 0.0
1.0 0.4749999940395355 0.0
1.0 0.44999998807907104 0.0
1.0 0.42500001192092896 0.0
1.0 0.4000000059604645 0.0
1.0 0.375 0.0
1.0 0.3499999940395355 0.0
1.0 0.32499998807907104 0.0
1.0 0.30000001192092896 0.0
1.0 0.2750000059604645 0.0
1.0 0.25 0.0
1.0 0.22499999403953552 0.0
1.0 0.20000000298023224 0.0
1.0 0.17499999701976776 0.0
1.0 0.15000000596046448 0.0
1.0 0.125 0.0
1.0 0.10000000149011612 0.0
1.0 0.07500000298023224 0.0
1.0 0.05000000074505806 0.0
1.0 0.02500000037252903 0.0
0.9750000238418579 0.0 0.0
0.949999988079071 0.0 0.0
0.925000011920929 0.0 0.0
0.8999999761581421 0.0 0.0
0.875 0.0 0.0
0.8500000238418579 0.0 0.0
0.824999988079071 0.0 0.0
0.800000011920929 0.0 0.0
0.7749999761581421 0.0 0.0
0.75 0.0 0.0
0.7250000238418579 0.0 0.0
0.699999988079071 0.0 0.0
0.675000011920929 0.0 0.0
0.6499999761581421 0.0 0.0
0.625 0.0 0.0
0.6000000238418579 0.0 0.0
0.574999988079071 0.0 0.0
0.550000011920929 0.0 0.0
0.5249999761581421 0.0 0.0
0.5 0.0 0.0
0.4749999940395355 0.0 0.0
0.44999998807907104 0.0 0.0
0.42500001192092896 0.0 0.0
0.4000000059604645 0.0 0.0
0.375 0.0 0.0
0.3499999940395355 0.0 0.0
0.32499998807907104 0.0 0.0
0.30000001192092896 0.0 0.0
0.2750000059604645 0.0 0.0
0.25 0.0 0.0
0.22499999403953552 0.0 0.0
0.20000000298023224 0.0 0.0
0.17499999701976776 0.0 0.0
0.15000000596046448 0.0 0.0
0.125 0.0 0.0
0.10000000149011612 0.0 0.0
0.07500000298023224 0.0 0.0
0.05000000074505806 0.0 0.0
0.02500000037252903 0.0 0.0
0.5067289119691989 0.5042235051212858 0.0
0.7128776446926985 0.7041293782448959 0.0
0.7037673323670797 0.2961254779304993 0.0
0.298242377819368 0.7084089684416958 0.0
0.2961100517252535 0.29777447219987924 0.0
0.7775425009688208 0.506831356309981 0.0
0.5034103366626356 0.22339538988399388 0.0
0.4931750120328067 0.7795740324178615 0.0
0.22413369405103079 0.49810571117861185 0.0
0.8299867121989558 0.8222078366631327 0.0
0.8212486765905491 0.17225790957514006 0.0
0.1815771779113679 0.8310507147270139 0.0
0.17185177773591329 0.181549538000366 0.0
0.6441976985240981 0.5674513480099702 0.0
0.5648818308196927 0.3684245155851733 0.0
0.44300423276864725 0.6366163677299337 0.0
0.36366550919928137 0.4296972038169094 0.0
0.846228785348407 0.6451460758833846 0.0
0.6455259137336192 0.15707682677020648 0.0
0.35146860494293447 0.8436914533395891 0.0
0.1568404602563175 0.35702337093957137 0.0
0.6498188332760523 0.8432314998991431 0.0
0.843381236378809 0.35951783645946955 0.0
0.1593254470984984 0.6447584712799751 0.0
0.3600124103307288 0.15863761657212466 0.0
0.6751333137526956 0.45054484709261117 0.0
0.5848389549886723 0.6781571833653766 0.0
0.44865908716677366 0.321925183645611 0.0
0.32949471984623396 0.5583971784614896 0.0
0.8838303333953584 0.532670089956776 0.0
0.5324341682946383 0.11466765623494599 0.0
0.46801046512342076 0.8872315114778692 0.0
0.11440328655382694 0.47036301261736657 0.0
0.8990564434524337 0.743569253383409 0.0
0.7433195613724832 0.10396177713508584 0.0
0.26005182982616026 0.8986906548191775 0.0
0.10457593336144147 0.2600753355939133 0.0
0.7461264760394183 0.8846406187809462 0.0
0.1201132830443357 0.7458391376338486 0.0
0.8828035363445211 0.25780832803116815 0.0
0.25729762243323817 0.12007011052611088 0.0
0.7430502222318278 0.6053606855570058 0.0
0.6101536959696406 0.2524158954221411 0.0
0.39615244797676985 0.7499420253675995 0.0
0.2555623332665198 0.3965952961094854 0.0
0.5246181613039569 0.5937522108307504 0.0
0.9001445528689533 0.8871339445796045 0.0
0.8858144450342318 0.1021585631330151 0.0
0.11730082661041565 0.9007745722196073 0.0
0.10181025278673728 0.11737146636395253 0.0
0.7630700718081403 0.3940281362307662 0.0
0.23978056244509693 0.61227412866593 0.0
0.3924960117838395 0.2374711978192269 0.0
0.8987076157311756 0.4385339411816929 0.0
0.4377544415424821 0.1038574169287001 0.0
0.5666750929593232 0.8961418317687186 0.0
0.10405567960134979 0.5651610422369112 0.0
0.7897042470652713 0.744132819915861 0.0
0.7437346862589624 0.21290473072810412 0.0
0.25847744475128687 0.7910113784414576 0.0
0.21325576897889037 0.25874189981012496 0.0
0.7219474467752658 0.8019928207337764 0.0
0.7957751684371772 0.28490243532699955 0.0
0.2073088121551732 0.7192282343318008 0.0
0.2889712587318052 0.20314056045149853 0.0
0.5955978031596907 0.4962567396030167 0.0
0.49224925859634044 0.4133815628929689 0.0
0.42668298125416027 0.5480276516831537 0.0
0.6335810955733046 0.7599036206558174 0.0
0.6534138707713293 0.35607336283648083 0.0
0.49717887643587966 0.6943666004718543 0.0
0.35520959003342806 0.6446101094749447 0.0
0.3511000100144349 0.3492518499190909 0.0
0.917553284329262 0.8173694815912479 0.0
0.8165081567599957 0.08511555720454528 0.0
0.18648673233504812 0.9178714914930647 0.0
0.08524483427009796 0.18623602876562817 0.0
0.8293468167135286 0.9118057931149219 0.0
0.09251729624277813 0.8298600971945416 0.0
0.9106909087978674 0.17348713696533935 0.0
0.17306408715014313 0.09238872941898418 0.0
0.6998416426603218 0.519582774419631 0.0
0.6504236581656375 0.6503275154337763 0.0
0.5142322962635885 0.3049798771158062 0.0
0.3014443079652772 0.48581253545884084 0.0
0.9192346297456722 0.6091245688030319 0.0
0.6146768839845113 0.08701292443656941 0.0
0.39683450426558436 0.9217475746920093 0.0
0.08445970397491309 0.38858975033810433 0.0
0.6655731923107651 0.9206277209121205 0.0
0.0827534651968217 0.6640270097461387 0.0
0.9202520981574172 0.3399360708095945 0.0
0.33968695000105414 0.0823930843970374 0.0
0.8229547891409416 0.43823433946701496 0.0
0.5681362302615771 0.8183108386173257 0.0
0.4367712306050908 0.17862736768096107 0.0
0.1797914391994888 0.566606059833863 0.0
0.43531485847615475 0.4597634088601307 0.0
0.8201709249064186 0.571416140433502 0.0
0.5695834227279313 0.18282882794083496 0.0
0.4314665027884726 0.8203481404049925 0.0
0.18257749455173253 0.43303241803371884 0.0
0.772484007340211 0.6693385990202467 0.0
0.6695877966173789 0.22704785091111762 0.0
0.33271361311453485 0.7774468423074582 0.0
0.22757943339810863 0.33317774952641915 0.0
0.930396476095148 0.6859085881804269 0.0
0.6862902733865419 0.07346136927476744 0.0
0.31419978139349036 0.9283258214150307 0.0
0.0751081437434533 0.31336559580728396 0.0
0.562560344767713 0.7420112123311213 0.0
0.6032800271107177 0.42116173253808964 0.0
0.3766865144173599 0.5005591814098261 0.0
0.7354683972589303 0.46032843248463384 0.0
0.4571450638172412 0.26405078676226496 0.0
0.2679007476126825 0.5443836495820604 0.0
0.588627333841457 0.6158633469949794 0.0
0.41974763668295395 0.38822794775589564 0.0
0.5733270562475855 0.5433951874793475 0.0
0.5494931183896253 0.45044029738781804 0.0
0.9355164599719576 0.49808923513037096 0.0
0.4989831428924981 0.06786914268662612 0.0
0.5035035967318194 0.9332354602802049 0.0
0.06785328994886103 0.5040245108443919 0.0
0.8464851380011513 0.4999473550771969 0.0
0.49829888862953164 0.15495088507101268 0.0
0.5002503236410016 0.8436191000156611 0.0
0.15574187271819917 0.5045612196005923 0.0
0.8459152278717962 0.6993099863104262 0.0
0.6991453069218487 0.1573807895775892 0.0
0.30215655419652043 0.8457476953302431 0.0
0.15784430758085732 0.3032558501705407 0.0
0.7724967821505311 0.839058277706568 0.0
0.8364424225007672 0.23002103446765915 0.0
0.16639763039797564 0.7733061378741473 0.0
0.22937388144809737 0.1661301079749576 0.0
0.7631287664444277 0.3287604652861113 0.0
0.2392809276501741 0.6761956949525731 0.0
0.32759151886122956 0.23917213392232595 0.0
0.6406294465567663 0.30295367414654006 0.0
[...]
POINT_DATA 2209
SCALARS Psi double
LOOKUP_TABLE default
0.0
0.0
0.0
0.0
0.0
0.0
0.0
0.0
0.0
0.0
0.0
0.0
0.0
0.0
0.0
0.0
0.0
0.0
0.0
0.0
0.0
0.0
0.0
0.0
0.0
0.0
0.0
0.0
0.0
0.0
0.0
0.0
0.0
0.0
0.0
0.0
0.0
0.0
0.0
0.0
0.0
0.0
0.0
0.0
0.0
0.0
0.0
0.0
0.0
0.0
0.0
0.0
0.0
0.0
0.0
0.0
0.0
0.0
0.0
0.0
0.0
0.0
0.0
0.0
0.0
0.0
0.0
0.0
0.0
0.0
0.0
0.0
0.0
0.0
0.0
0.0
0.0
0.0
0.0
0.0
0.0
0.0
0.0
0.0
0.0
0.0
0.0
0.0
0.0
0.0
0.0
0.0
0.0
0.0
0.0
0.0
0.0
0.0
0.0
0.0
0.0
0.0
0.0
0.0
0.0
0.0
0.0
0.0
0.0
0.0
0.0
0.0
0.0
0.0
0.0
0.0
0.0
0.0
0.0
0.0
0.0
0.0
0.0
0.0
0.0
0.0
0.0
0.0
0.0
0.0
0.0
0.0
0.0
0.0
0.0
0.0
0.0
0.0
0.0
0.0
0.0
0.0
0.0
0.0
0.0
0.0
0.0
0.0
0.0
0.0
0.0
0.0
0.0
0.0
0.0
0.0
0.0
0.0
0.0
0.0
-0.04550174760605237
-0.08054815746634857
-0.010839812996331003
-0.050070119552478615
-0.010435536988592934
-0.027466768941894044
-0.009354364751194343
-0.08408383954859552
-0.018646843038369533
-0.06577163548124332
-0.0015152810785945452
-0.037309114343446796
-0.001840158305090453
-0.05779723372395502
-0.023898792328542084
-0.06355553479041491
-0.025943118846973416
-0.034204144190474066
-0.003962596240553036
-0.06592608418180756
-0.005715178406934253
-0.08676451930101134
-0.005861360163754329
-0.018353769939743903
-0.00411022017407425
-0.031196243661342764
-0.08200981266031382
-0.017803419616225967
-0.037854870304088
-0.010862444067423588
-0.002721858748833323
-0.06928570928372443
-0.005706571311648531
-0.02888517873761267
-0.0011291767203714521
-0.050231795858990895
-0.0015463140205762107
-0.07190555838489132
-0.016495860151658263
-0.0015036540308402846
-0.0015944534948847569
-0.053850813323382665
-0.010613083488419467
-0.07040224563030717
-0.01462338792304024
-0.0635183860641213
-0.04071155184036152
-0.00017414766418120256
-0.028044463835462392
-0.0002785193521496822
-0.015090408285091072
-0.030038441928524198
-0.00928949228812829
-0.004366499239526586
-0.0021905036894562563
-0.07041264723858652
-0.006932666098788862
-0.0710019662011068
-0.00449137327085161
-0.04997304559511943
-0.005104629622611245
-0.08757646444058473
-0.0055471242381498215
-0.03322704705966763
-0.005021779811467212
-0.04455965311415035
-0.030088792087489002
-0.047595267679982095
-0.09189721586080153
-0.01921127936542279
-0.07802640554966943
-0.05248982105930778
-0.01698645371147197
-0.0281910014924892
-0.00038058360519683984
-0.03974924296258735
-0.000533760418395447
-0.05430856531027255
-0.015512647384332414
-0.00033665154097942156
-0.000484565298669271
-0.04170738443871527
-0.07611152838154901
-0.01672065601696786
-0.026409171137061385
-0.009125559123066928
-0.0014081365500863351
-0.05400444177394487
-0.002235688758623706
-0.05974879594314254
-0.006578945304006948
-0.0013088066600592417
-0.0011253462155935093
-0.012472512955941038
-0.08834966882156381
-0.0059534948644428334
-0.017165852215659704
-0.03463540209908704
-0.029124148055468813
-0.006210948587769659
-0.07658968546349762
-0.01052758443173995
-0.06162513305952856
-0.007321267563247082
-0.06221586877519468
-0.008990445565487245
-0.011481560754077802
-0.0007967543420894991
-0.04717079139399608
-0.0011843701105609535
-0.08862477616865018
-0.03065854524572791
-0.035776178092419376
-0.026377032607439548
-0.012415383026690999
-0.028041955344787525
-0.07026047585199643
-0.024330014761723164
-0.054683381746502356
-0.03664659590116279
-0.002756577366283458
-0.0010421143534276086
-0.051394925327133335
-0.002590523291002459
-0.01456328558947955
-0.004789370453895213
-0.0807466166595604
-0.010974695815924694
-0.04403892839773027
-0.0032240235886472645
-0.05935925440341625
-0.0042479260196288246
-0.07838828960085843
-0.002308671472082565
-0.02886533094551336
-0.002479303226300108
-0.009773741416398658
-0.035807392925141984
-0.007878407176480206
-0.014161161734874231
-0.06113619600829728
-0.01533314502261031
-0.05551931951851279
-0.0014983501932500272
-0.0043655414926328405
-0.0010399877810201726
-0.050650730905392356
-0.07315876940452382
-0.01768428529021832
-1.7068922572237304e-05
-0.02434561128970396
-4.4741270858933983e-07
-0.05529747603441661
-0.003504978465475704
-0.0008084751600367525
-0.04684586782038528
-0.0016359925505668254
-0.014409866297574524
-0.0003677366635872241
-0.038812936869756294
-0.0005089063586350974
-0.04680548570790443
-0.006497857398877353
-0.00032104092603030623
-0.00043008833347378685
-0.05537321335089134
-0.001998509736127217
-0.0480583385951258
-0.0024810624247475007
-0.08397960602678557
-0.00381677050981153
-0.020505705788936637
-0.003362552795108165
-0.07030239841346338
-0.04590062399335554
-0.02336365572391356
-0.039895393845693614
-0.01640765787242108
-0.0866796201176956
-0.021271328217517385
-0.060396414301491806
-0.011330109465804122
-0.018472043377434976
-0.01943578129493069
-7.555501220891604e-05
-0.03029355219810074
-0.00013019543869718895
-0.04065339105705583
-0.011172052325551416
-8.977351648611203e-05
-0.00016176909137267045
-0.07498631971953179
-0.021717536539346556
-0.014680205601260234
-0.03990778343216882
-0.07777511841046583
-0.020413057447389266
-0.003566663477183163
-0.07029903812566791
-0.006059893616233901
-0.08097490793379775
-0.006707352243535946
-0.04602385360872304
-0.006798552964686756
-0.09000946040665204
-0.045486844046193846
-0.0073831419322585
-0.07018542887492978
-0.010367622686691686
-0.04854593298015245
-0.0052111545877840506
-0.0004860245782886167
-0.0005665034756470225
-0.048766009931468714
-0.000539959930850392
-0.03517760818768218
-0.0007345118935336803
-0.011958232059150803
-0.006869013600859367
-0.022841553038560714
-0.068933539475959
-0.07357159123221026
-0.0028704975124108616
-0.04115023552768163
-0.00325711173539501
-0.014926525668769123
-0.0430141794673807
-0.011892230492180723
-0.004230243525065143
-0.0772905795141106
-0.00268793034187639
-0.0108796106223276
-0.09137974416945448
-0.06257630202634883
-0.09051175388728065
-0.04257346469053694
-0.05758929965543389
-0.007127370237785162
-0.027785545251244728
-0.005505419123133693
-0.02876531914564507
-0.018222795397045553
-0.020116546839627807
-0.0010874576372397072
-0.0006385940066621582
-0.043594581870011154
-0.0021346763716029666
-0.06883044085890658
-0.025078521059346902
-0.0011240807776912159
-0.0013524406161240458
-0.007184207402486612
-0.002675683137768012
-0.07251488050395177
-0.006797023590830974
-0.018754913499079623
-0.009265220353438486
-0.02463118545477739
-0.03604736828958453
-0.047593276800312584
-0.02724650309176785
-0.0022659308708516536
-0.0599989244963008
-0.003214626106778307
-0.005356698149831245
-0.00023845557903172778
-0.028923409788430145
-0.00028652083646050954
-0.002763721999359323
-0.00032190316272191164
-0.034467282560865065
-0.0006192092709657249
-0.023572775667419128
-0.08315647826159907
-0.027038924900213604
-0.036968471943524005
-0.042862018370150384
-0.08884827952413835
-0.046544424797736385
-0.0010583274549414248
-0.04420701010311911
-0.001367177815172363
-0.07410433929674877
-0.007854431844362535
-0.05409367908481128
-0.008526382155335877
-0.05313308847884122
-0.00038207983148364925
-0.025555613423124138
-0.0005489092967421184
-0.05208773370972749
-0.018887802462321038
-0.08362706508471111
-0.05508330837410309
-0.02869432514979999
-0.03289290294803823
-0.08804719439847719
-0.024375637886497842
-0.029290995373019525
-0.05262622902735845
-0.03247480797809493
-0.03380985030325311
-0.012693597812510813
-0.015663952310467598
-0.02426693630909686
-0.06856287654271533
-0.07784893974961127
-0.009182073755385088
-0.00010571660549605124
-0.029532315307737016
-0.00016175801913862037
-0.038006906965799
-0.0055055255077197315
-0.00012170871706619465
-0.00019508930292336113
-0.03179133389477941
-0.0418649158076758
-0.04452604048556634
-0.00930106244293022
-0.014162912099822202
-0.01887205469286189
-0.0048809726890498475
-0.08079348291164533
-0.00960212885691777
-0.07764789628335778
-0.013524160864348113
-0.00308391450480943
-0.0024684348760946506
-0.034976065246329464
-0.0018484071265785422
-0.0003553121288556789
-0.00033495330113303656
-0.0023715394260971213
-0.0004964980819740573
-0.03315621675492944
-0.0008855425759555094
-0.009667197773544842
-0.004161393008487263
-0.08207772551669623
-0.01151254572630726
-0.021932031095895914
-0.007844684320909087
-0.08643453694415555
-0.004451662353287686
-0.015582301287335178
-0.01038434962414769
-0.06542340402195054
-0.01284021964297292
-0.06416098537711443
-0.01580348212278086
-0.0008004177218000187
-0.0009748877980573763
-0.07184669550147875
-0.030024865835794518
-0.0006921207197763958
-0.04486613725566367
-0.0009484106730187339
-0.022053911606607173
-0.0026620838539595858
-0.06437284551607306
-0.0040551051852038954
-0.014050080913067529
-9.70776368312076e-06
-0.022915463770915096
-2.892814508375872e-05
-0.0072001260302132575
-0.02590778100491096
-2.30046513926492e-05
-4.554231398921282e-06
-0.07486999373844967
-0.05032332751952919
-0.0050784781629141205
-0.06287681183195161
-0.006621487528040861
-0.0688328952192093
-0.011251099890801431
-0.0016346516648764252
-0.001548992167205439
-0.07916230381990774
-0.014710823326208508
-0.05154735038818584
-0.01368687214636968
-0.008634830501151068
-0.015360807069312874
-0.031722105784999385
-0.02043270018406568
-0.018010466448995965
-0.006967984365445057
-0.016677811334929283
-0.008420785778552934
-0.0017358152421347846
-0.060680582528695605
-0.003296597145925356
-0.07593995748481143
-0.03779557671423385
-0.05143188911272893
-0.06182797954445239
-0.062175398753849566
-0.013914870567049004
-0.017086516131153376
-0.03130092146143833
-0.004858015373168156
-0.07194070951259561
-0.0075308641737847435
-0.010679179698108944
-0.0073011085188521875
-0.028944769188813873
-0.09159722384953921
-0.036944115493754925
-0.0649101799102801
-0.00555823545074233
-0.05658848668606315
-0.0065717499182348545
-0.001114802786768857
-0.0003726981358857965
-0.032598402309465174
-0.0008699167973931071
-0.06321749836914627
-0.06151076777834687
-0.06865526130872393
-0.030353771068824618
-0.026433980062968144
-0.01461500341607215
-0.03457313745642099
-0.07652530109651726
-0.07808655660029035
-0.08227936500391138
-0.0030500035258258012
-0.026237140701584834
-0.00298985928822806
-0.08246004354896677
-0.003975405944367418
-0.0383349834929625
-0.00414993051483995
-0.04712840001432693
-0.002244277710446095
-0.05332558232805087
-0.002874068907621419
-0.021220720504999745
-0.0011297695237280077
-0.05159757852105166
-0.0016404533789194052
-0.024899562961156838
-0.010446554027670156
-0.023236596563197556
-0.08434343990547309
-0.01096760025523648
-0.05841896447945689
-0.01192402337804932
-0.037370228693475005
-0.019663782507674758
-0.003075265076158833
-0.0002227886070270407
-0.02590975601335352
-0.00028469116061134226
-0.028235633497710577
-0.028291161306969556
-0.05813890467456876
-0.013025522828168977
-0.0013233285827163334
-0.05330300829513677
-0.0019354495507773674
-0.008958642307121263
-0.04308956187927764
-0.008227665332383923
-0.03304864244691547
-0.00023048083786376099
-0.03433718585640517
-0.0003473734478472412
-0.03245975959208714
-0.0019404328569377874
-0.0002315977083544417
-0.0002613029968294336
-0.0007031284793940374
-0.00033147278986870075
-0.030674792885559028
-0.0008978519777513991
-0.004847015013864229
-0.0012933928880630107
-0.05519948368783415
-0.0028356828831997668
-0.010799213455880457
2.5602755402780026e-06
-0.012318803647802629
3.5979056018291053e-06
-0.07143954703354374
-0.02097086570584456
-0.011814569246494693
-0.03193466784123668
-0.059902566920984314
-0.0007305834381501633
-0.029459687030039667
-0.0009532991743783468
-0.030070599088806698
-0.0023982740816801042
-0.0001167062485866879
-0.00017551828385543557
-0.006841050370737527
-0.01398452669081428
-0.02228647678315238
-0.08738773775825151
-0.03983814712901046
-0.061334044736732866
-0.006168723637933802
-0.0016818136076115835
-0.0012696380482993786
-0.08555918444228872
-0.09222016165713744
-0.07503004634601133
-0.023418585453340635
-0.0017175667143668042
-0.0018823518716623029
-0.05734204611587453
-0.0007020941576461705
-0.00867262155018545
-0.0008100175267332053
-0.07958380224681243
-0.07422005831828157
-0.017067543389842725
-0.0005695783281133354
-0.043273713521128535
-0.0007902110041677825
-0.04196156247352569
-0.0025302394407008574
-0.0012208785476440745
-0.056436482261963225
-0.003622360605059598
-0.03224006835584092
-0.0012279255098093709
-0.0004597455620980648
-0.0003292000608481663
-0.07004099093791648
-0.0517010519951421
-0.06922344360965314
-0.03412580150272953
-0.07443928405521848
-0.005996081011734697
-0.0786115314449037
-0.003122451283016292
-0.010212838408611397
-0.06027572223118142
-0.03430033266507007
-0.015004880644698411
-0.02279763593863928
-0.09082684740244845
-0.01266387484069208
-0.01734005198676216
-0.009072891461219453
-4.823226009275214e-05
-3.266167212877355e-05
-6.993284498052893e-05
-0.027999197335713544
-0.0041092562872634365
-0.025701083360940534
-8.219370748783387e-05
-0.018283044128559918
-0.045249935970504696
-0.014256759189559076
-0.04882779278288442
-0.04932530804598785
-0.01343695913945155
-0.03504026349818438
-0.009567376964915482
-0.0670852587207132
-0.04291637516183688
-0.07220941145108362
-0.0019320759434620857
-0.03495674333349809
-0.0022448181022712145
-0.08566228757035566
-0.0653094785771918
-0.002866417069753856
-0.06394265516587234
-0.0019428122306493479
-0.047260686856707465
-0.04257122868117982
-0.003386557871724277
-0.0023362914685424846
-0.007768739268334807
-0.022269377081628145
-0.005279310083071057
-0.0815026609992263
-0.002567242460000943
-0.06346954997230109
-0.0015364237799111121
-0.005675806660092696
-0.027365209605119182
-2.7175000210064787e-05
-0.023748083586471534
-6.47663455235509e-05
-0.0031317809893378385
-9.58895943672872e-05
-0.021923645870300365
-0.00013246736086841725
-0.01692458783895845
-0.017065338054462788
-0.05844080836389837
-0.004803349107677201
-8.23398796019051e-05
-0.02357537822594187
-0.00012055246088636254
-0.028587044830081808
-0.002719909842969666
-7.379552054276088e-05
-0.0001259047846681773
-0.05206835869191901
-0.041878060548807945
-0.0013780281903629918
-0.04916198363935082
-0.00180068897150152
-0.011190293809179555
-0.0034720528326054783
-0.07573196723954768
-0.0079039652108751
-0.061471011501911386
-0.003748479139915695
-0.05334151032604785
-0.004523070095484892
-0.0077373148351949335
-0.0327485264766249
-0.006658390672470485
-0.04347358498557047
-0.08642368869731495
-0.08594815493570761
-0.01742660058148711
-0.03630518328697989
-0.01162659242977439
-0.04013732697315158
-0.017353019789346617
-7.875341223853213e-05
-0.0001484986798887196
-0.036677963791068594
-0.0032928525522599467
-0.06251864748451141
-0.004557783216902668
-0.07797521929137764
-0.004378030103309409
-0.044056389852231335
-0.004725215611737299
-0.024579956738701662
-0.06951550675041149
-0.04976383790987406
-0.025294701382122062
-0.02466971026034515
-0.08676524848223177
-0.0004196316287344849
-0.00011085538595113614
-0.01874344236618461
-0.00022047586599344523
-0.04527410213558609
-0.08413562957757653
-0.021807289838304163
-0.039944803820452825
-0.02528353225605912
-0.00548530142234094
-4.078656283594251e-08
-0.008077795936654518
-0.018389472966531595
-0.01635522714326179
2.95795031289601e-06
4.298833862458889e-06
1.1905996144317232e-07
-0.056392782123088486
-0.004533361252072548
-0.004854460657515363
-0.025428299495495195
-0.019880897894987398
-0.004215309712946181
-0.003831402107555214
-0.08890999712596738
-0.04307143188781689
-0.012214893812937257
-0.04318781513820903
-0.010299624171302233
-0.032019039934480825
-0.08708495492475361
-0.03878635944283564
-0.00219304434135487
-0.05614349162065515
-0.002925467040850484
-0.08048657006601817
-0.009152628965276724
-0.06887897704529126
-0.012122964307520937
-0.08527437202273994
-0.04426485104305173
-0.005579887507392769
-0.0671482064899805
-0.0077406278828196125
-0.04802490415048195
-0.015370744038600401
-0.00019019613620599622
-0.0002993798499825641
-0.07867198300615404
-0.020636229505870855
-0.0023393279989005864
-0.0023293056878101064
-0.06268800599717873
-0.024702905076128708
-0.0531613974663292
-0.08960817642721089
-0.018636068251122948
-0.011264105058990639
-0.02034826864332682
-0.06327876376169052
-0.033955542429789425
-0.014501917754876997
-0.008365910701233848
-0.0264338055005809
-0.00627928990795707
-0.0375769541915936
-0.005886994789853195
-0.016625812374974094
-0.0036880412505868225
-0.006938350132925
-0.06665019985946406
-0.08265560438595233
-0.031695412663326525
-0.0033695490986016
-0.003399128952145047
-0.01882891712866751
-0.0002872098502075399
-0.037988258343164334
-0.00040948080653222695
-0.048610577369763666
-0.008802922828957041
-0.00027962424426500657
-0.0003990666274399998
-0.04223460815116944
-0.01925448095736531
-0.058775454276607554
-0.01371330704039744
-0.005298982045760995
-0.013316122466500529
-0.027214996961223592
-0.0009760062869723045
-0.00021819685067891707
-0.00020049249768500817
-0.08074102282957571
-0.01740718963004459
-0.03209714736930454
-0.00010931533413786732
-0.00017562853086582536
-0.07341698770500987
-0.005658133763433962
-0.05093682340427113
-0.006260158524762538
-0.04940948944206169
-0.026427664294542443
-0.003711550959558518
-0.06918630861689218
-0.00576809911869539
-0.07968089701689697
-0.00397428882614493
-0.013191278814756478
-0.0028242448191323506
-0.09057398192147598
-0.03708497184035713
-0.0901507586041296
-0.059544258479048456
-0.0005477588079658613
-0.021613294260725033
-0.0007354546509140027
-0.016547988665013537
-0.006454632384652692
-0.05215397225944455
-0.00909417734708814
-1.561639466311142e-05
-0.023295216161590717
-3.547130906400511e-05
-0.022765225132332506
-0.003805016506176299
-6.354007963529527e-06
-2.256745218108941e-05
-0.07812047341914524
-0.013342983348903126
-0.006848251031776104
-0.020410744369617304
-0.0572714075634026
-0.0009645658489900763
-0.03703356521966174
-0.0012364150236349976
-0.022185977936320725
-0.0009994508776574739
-0.0018696972890791352
-0.053771884446939124
-0.04678661047461445
-0.008576991851492254
-0.04834828378126804
-0.008477783541243965
-0.000835617985589706
-0.000134915195957938
-0.022122015353941885
-0.0002402820768693554
-0.07594577407764393
-0.0717574815927543
-0.07472022688361113
-0.016325115328662994
-0.002419159371222952
-0.064369181936134
-0.0039440092238320614
-0.05791201449637712
-0.0009769812021796127
-0.006905099923509575
-0.0009566634276584325
-0.03110998196398625
-0.00013655610516965903
-0.03142660069031462
-0.00022351383729219594
-0.03907761883056474
-0.03859587746265376
-0.0004902054579565126
-0.03917305700007341
-0.0006740144111536898
-0.09170722637924861
-0.024301908441178903
-0.004750779255329447
-0.008176014581073216
-0.04840076619959688
-0.00033471083116346363
-0.029163072556109962
-0.0004880621666208414
-0.00837808409673477
-0.0051623453579013445
-0.019435235337704783
-0.025377389906880342
-0.013091974417436324
-0.0006863543225381361
-0.04701847776884747
-0.0011315827833457382
-0.01712368108231895
-0.0006428029062258305
-4.358685757440254e-05
-6.346715123261792e-05
-0.00664176167255022
-0.012395283279370051
-0.04396498152036421
-0.013905609175129865
-0.023631284420172826
-0.07033711281752435
-0.02618415491481269
-0.03779734592377441
-0.007311139837415774
-0.011236579736613206
-0.0010728541067072943
-9.720217025415884e-05
-0.0196484374434441
-0.00014626065150944971
-0.016063567838590084
-0.016969489921098407
-0.007726092481702112
-0.020306084520300475
-0.04723265543735249
-0.022015689702836908
-0.00019466106614250903
-0.0003079628116065346
-0.02062539728824968
-0.08958528866502517
-0.0068221536972891
-0.0022535846707256745
-0.06747623334738273
-0.00528259560152918
-0.06046329383639692
-0.05338789763523515
-0.0226068393812561
-0.0739226480581558
-0.012338525314253846
-0.05399789928137034
-0.012291745416061477
-0.007393427013698341
-0.06639017038859785
-0.009681002220942096
-0.04843974686053559
-0.025857172502688836
-0.057615603491455315
-0.000430324456272327
-0.00018798525522376315
-0.02280073215756718
-0.0004661431695587693
-0.010426286683542197
-0.003854971463304413
-0.08015146701849495
-0.009708001121743508
-0.06414435514991902