# vtk DataFile Version 1.0
2D Simulation C++
ASCII
DATASET UNSTRUCTURED_GRID
FIELD FieldData 1
NODES 1 2 int
2209 4256

POINTS 2209 double
0.0 0.0 0.0
0.0 1.0 0.0
1.0 1.0 0.0
1.0 0.0 0.0
0.0 0.02500000037252903 0.0
0.0 0.05000000074505806 0.0
0.0 0.07500000298023224 0.0
0.0 0.10000000149011612 0.0
0.0 0.125 0.0
0.0 0.15000000596046448 0.0
0.0 0.17499999701976776 0.0
0.0 0.20000000298023224 0.0
0.0 0.22499999403953552 0.0
0.0 0.25 0.0
0.0 0.2750000059604645 0.0
0.0 0.30000001192092896 0.0
0.0 0.32499998807907104 0.0
0.0 0.3499999940395355 0.0
0.0 0.375 0.0
0.0 0.4000000059604645 0.0
0.0 0.42500001192092896 0.0
0.0 0.44999998807907104 0.0
0.0 0.4749999940395355 0.0
0.0 0.5 0.0
0.0 0.5249999761581421 0.0
0.0 0.550000011920929 0.0
0.0 0.574999988079071 0.0
0.0 0.6000000238418579 0.0
0.0 0.625 0.0
0.0 0.6499999761581421 0.0
0.0 0.675000011920929 0.0
0.0 0.699999988079071 0.0
0.0 0.7250000238418579 0.0
0.0 0.75 0.0
0.0 0.7749999761581421 0.0
0.0 0.800000011920929 0.0
0.0 0.824999988079071 0.0
0.0 0.8500000238418579 0.0
0.0 0.875 0.0
0.0 0.8999999761581421 0.0
0.0 0.925000011920929 0.0
0.0 0.949999988079071 0.0
0.0 0.9750000238418579 0.0
0.02500000037252903 1.0 0.0
0.05000000074505806 1.0 0.0
0.07500000298023224 1.0 0.0
0.10000000149011612 1.0 0.0
0.125 1.0 0.0
0.15000000596046448 1.0 0.0
0.17499999701976776 1.0 0.0
0.20000000298023224 1.0 0.0
0.22499999403953552 1.0 0.0
0.25 1.0 0.0
0.2750000059604645 1.0 0.0
0.30000001192092896 1.0 0.0
0.32499998807907104 1.0 0.0
0.3499999940395355 1.0 0.0
0.375 1.0 0.0
0.4000000059604645 1.0 0.0
0.42500001192092896 1.0 0.0
0.44999998807907104 1.0 0.0
0.4749999940395355 1.0 0.0
0.5 1.0 0.0
0.5249999761581421 1.0 0.0
0.550000011920929 1.0 0.0
0.574999988079071 1.0 0.0
0.6000000238418579 1.0 0.0
0.625 1.0 0.0
0.6499999761581421 1.0 0.0
0.675000011920929 1.0 0.0
0.699999988079071 1.0 0.0
0.7250000238418579 1.0 0.0
0.75 1.0 0.0
0.7749999761581421 1.0 0.0
0.800000011920929 1.0 0.0
0.824999988079071 1.0 0.0
0.8500000238418579 1.0 0.0
0.875 1.0 0.0
0.8999999761581421 1.0 0.0
0.925000011920929 1.0 0.0
0.949999988079071 1.0 0.0
0.9750000238418579 1.0 0.0
1.0 0.9750000238418579 0.0
1.0 0.949999988079071 0.0
1.0 0.925000011920929 0.0
1.0 0.8999999761581421 0.0
1.0 0.875 0.0
1.0 0.8500000238418579 0.0
1.0 0.824999988079071 0.0
1.0 0.800000011920929 0.0
1.0 0.7749999761581421 0.0
1.0 0.75 0.0
1.0 0.7250000238418579 0.0
1.0 0.699999988079071 0.0
1.0 0.675000011920929 0.0
1.0 0.6499999761581421 0.0
1.0 0.625 0.0
1.0 0.6000000238418579 0.0
1.0 0.574999988079071 0.0
1.0 0.550000011920929 0.0
1.0 0.5249999761581421 0.0
1.0 0.5 0.0
1.0 0.4749999940395355 0.0
1.0 0.44999998807907104 0.0
1.0 0.42500001192092896 0.0
1.0 0.4000000059604645 0.0
1.0 0.375 0.0
1.0 0.3499999940395355 0.0
1.0 0.32499998807907104 0.0
1.0 0.30000001192092896 0.0
1.0 0.2750000059604645 0.0
1.0 0.25 0.0
1.0 0.22499999403953552 0.0
1.0 0.20000000298023224 0.0
1.0 0.17499999701976776 0.0
1.0 0.15000000596046448 0.0
1.0 0.125 0.0
1.0 0.10000000149011612 0.0
1.0 0.07500000298023224 0.0
1.0 0.05000000074505806 0.0
1.0 0.02500000037252903 0.0
0.9750000238418579 0.0 0.0
0.949999988079071 0.0 0.0
0.925000011920929 0.0 0.0
0.8999999761581421 0.0 0.0
0.875 0.0 0.0
0.8500000238418579 0.0 0.0
0.824999988079071 0.0 0.0
0.800000011920929 0.0 0.0
0.7749999761581421 0.0 0.0
0.75 0.0 0.0
0.7250000238418579 0.0 0.0
0.699999988079071 0.0 0.0
0.675000011920929 0.0 0.0
0.6499999761581421 0.0 0.0
0.625 0.0 0.0
0.6000000238418579 0.0 0.0
0.574999988079071 0.0 0.0
0.550000011920929 0.0 0.0
0.5249999761581421 0.0 0.0
0.5 0.0 0.0
0.4749999940395355 0.0 0.0
0.44999998807907104 0.0 0.0
0.42500001192092896 0.0 0.0
0.4000000059604645 0.0 0.0
0.375 0.0 0.0
0.3499999940395355 0.0 0.0
0.32499998807907104 0.0 0.0
0.30000001192092896 0.0 0.0
0.2750000059604645 0.0 0.0
0.25 0.0 0.0
0.22499999403953552 0.0 0.0
0.20000000298023224 0.0 0.0
0.17499999701976776 0.0 0.0
0.15000000596046448 0.0 0.0
0.125 0.0 0.0
0.10000000149011612 0.0 0.0
0.07500000298023224 0.0 0.0
0.05000000074505806 0.0 0.0
0.02500000037252903 0.0 0.0
0.5057367781549276 0.5053205635723537 0.0
0.7123891040634008 0.704165639481771 0.0
0.7038609661385822 0.29471590142689835 0.0
0.2976034888072781 0.7081616699130499 0.0
0.29466377541930266 0.298175998578479 0.0
0.7781030502438983 0.5046815695649349 0.0
0.5026425424287528 0.22318434236425955 0.0
0.4933360516712975 0.7804194567987616 0.0
0.22365909882000226 0.4989553404434839 0.0
0.8283850247306425 0.822601653868112 0.0
0.8222490319321057 0.17243096144864167 0.0
0.17975408950289556 0.8294567518551934 0.0
0.17262598016020245 0.17981187620500316 0.0
0.6439149178285714 0.5669985170124027 0.0
0.564449630711204 0.3682410085542294 0.0
0.44222419308787875 0.6373494727717269 0.0
0.36285479208665 0.43105301051028716 0.0
0.8465458567276438 0.6435423351599502 0.0
0.6445967200402775 0.1558030290001839 0.0
0.3521739960478852 0.8436302334176163 0.0
0.1559174178059294 0.35727638002782847 0.0
0.6480025723734271 0.8444003001384243 0.0
0.8443386764594418 0.3583299342346256 0.0
0.1582058064627492 0.6443381925949052 0.0
0.3590531583812503 0.157919692129231 0.0
0.67481890625378 0.44854466870274284 0.0
0.5847771518042282 0.6790352113427485 0.0
0.4468035486773689 0.32325869094096354 0.0
0.32887666768366297 0.5592541868724392 0.0
0.8844468646749525 0.531348283225076 0.0
0.5318477205815478 0.11385159482686526 0.0
0.4682741117220315 0.8883834200304198 0.0
0.11324408413023757 0.47066668317173854 0.0
0.8984386682431195 0.7426726763626711 0.0
0.7430538018222514 0.10359722566505844 0.0
0.2596762741721537 0.8977676549125454 0.0
0.1042161734492452 0.26008563231844467 0.0
0.7444300319498821 0.8858088203159694 0.0
0.11764289477296662 0.74433485857921 0.0
0.8844347294254326 0.2577216268031875 0.0
0.2580261601807227 0.11828895295171658 0.0
0.7433944101206075 0.6046059161597198 0.0
0.6099754409213696 0.2514540448273108 0.0
0.39630113789887556 0.7505024296800662 0.0
0.2543295511102771 0.3973405416792251 0.0
0.5235495820847793 0.5945246747623248 0.0
0.8992791011620773 0.887248175985844 0.0
0.8869009186704406 0.10209758960832305 0.0
0.11568606970457393 0.900220840889268 0.0
0.10250565945706804 0.11551373802886146 0.0
0.7632638143158201 0.3916001748918542 0.0
0.23913267294726198 0.6126939736825232 0.0
0.3910054795824384 0.23801564428545358 0.0
0.8997447023610681 0.43714699742664065 0.0
0.43744594764609973 0.10297446919119317 0.0
0.5658005576054241 0.8975204714524019 0.0
0.10315432518058507 0.5649145922687738 0.0
0.7889849097102833 0.7434617771222918 0.0
0.7437896161151175 0.21234106338807388 0.0
0.25825341348889475 0.7899926796026058 0.0
0.21245956602909652 0.25846984288745817 0.0
0.7200879359778973 0.8026149740911406 0.0
0.796316041971152 0.283946972726452 0.0
0.20564623928223996 0.7183255146334612 0.0
0.28839931034587823 0.20195248507186858 0.0
0.5944021233629 0.49639314284441194 0.0
0.4907580414085227 0.4146748139687626 0.0
0.42536439965589523 0.5493080300677551 0.0
0.6323773912053268 0.7608874856562202 0.0
0.6531050803962954 0.3546761510373116 0.0
0.49662653753133873 0.6951999186858678 0.0
0.35469400603035983 0.6449583803167329 0.0
0.34995201145478216 0.3504990127573291 0.0
0.9164863066713028 0.8166695883937142 0.0
0.8171012050546357 0.0853213936965182 0.0
0.18536580962608049 0.9169044708266435 0.0
0.08525222044561771 0.1854087029503822 0.0
0.827946712682006 0.9124298286303258 0.0
0.09041719181559629 0.8284584541996989 0.0
0.9120417886460195 0.1736207252693276 0.0
0.17373319672740958 0.09024429199783722 0.0
0.6995426488161289 0.5182433679281147 0.0
0.6502314752001659 0.6503253220246504 0.0
0.5133860550649529 0.3053955545082408 0.0
0.30065072756683914 0.48689651800685235 0.0
0.9195411913597616 0.6077290568306927 0.0
0.6137964605120759 0.08617027241078706 0.0
0.3974574147341065 0.9217620234182361 0.0
0.08355004214458059 0.38885720978714045 0.0
0.6639224713039488 0.9216094487832336 0.0
0.08118606378416812 0.6630332438140466 0.0
0.9213433395471199 0.3391834814767187 0.0
0.33941944133808966 0.0813461177668699 0.0
0.8236030742010564 0.4363878356017971 0.0
0.5675347990638546 0.8197017872862289 0.0
0.4356266430177507 0.17815904989741965 0.0
0.1787208834976388 0.5668811944538152 0.0
0.4339958128280088 0.4614812499422783 0.0
0.8208084348384215 0.5698999460775704 0.0
0.5689469592528488 0.18205224085208893 0.0
0.4320622849939466 0.8214190483974578 0.0
0.18145617629534128 0.4334479492664834 0.0
0.7730487166366016 0.6686118728251937 0.0
0.6694467252926902 0.22579397281649854 0.0
0.33288545011094595 0.7771706737182019 0.0
0.2264375463489636 0.3334532075248279 0.0
0.9303451639460546 0.6847111023236371 0.0
0.6852873589874058 0.07307284990219316 0.0
0.31429691551510613 0.9277277122823318 0.0
0.07473676353218656 0.3137013520299873 0.0
0.5622674173890898 0.743131539465439 0.0
0.602540847908535 0.4203027430596923 0.0
0.3753784541192205 0.5020383012629277 0.0
0.735353775348111 0.45795980523846097 0.0
0.4559603100312145 0.26480421615559524 0.0
0.2676424357791916 0.545357106987521 0.0
0.5880274633878466 0.6164984240555831 0.0
0.41803026107119917 0.3898090573597028 0.0
0.5723197771913237 0.5440375291624918 0.0
0.5485654923858578 0.45040744845746095 0.0
0.935616196468744 0.4968426973288478 0.0
0.49832572194371527 0.06666357200215992 0.0
0.5030072634761873 0.9340081206026591 0.0
0.066828189719599 0.5039340986418498 0.0
0.8474598355899547 0.4981367623251027 0.0
0.49753989233395113 0.15456270553654908 0.0
0.5003913592727767 0.8449127375330991 0.0
0.1546778774081074 0.504857023512762 0.0
0.8458503652793261 0.698263944232615 0.0
0.6985371053979961 0.156369797164013 0.0
0.30244499547390485 0.8453671709502583 0.0
0.15654201006536156 0.3034673736116339 0.0
0.7704022907928694 0.8399335127586265 0.0
0.8377952848287421 0.23034291528335582 0.0
0.1642714144519445 0.7718886210589339 0.0
0.22982236366405775 0.16425962678841 0.0
0.7635322274298632 0.32740463775727874 0.0
0.23823408935110707 0.6762113488632201 0.0
0.3264515151537372 0.23882797055861177 0.0
0.6402856592103997 0.3015606456927226 0.0
[...]
POINT_DATA 2209
SCALARS Psi double
LOOKUP_TABLE default
0.0
0.0
0.0
0.0
0.0
0.0
0.0
0.0
0.0
0.0
0.0
0.0
0.0
0.0
0.0
0.0
0.0
0.0
0.0
0.0
0.0
0.0
0.0
0.0
0.0
0.0
0.0
0.0
0.0
0.0
0.0
0.0
0.0
0.0
0.0
0.0
0.0
0.0
0.0
0.0
0.0
0.0
0.0
0.0
0.0
0.0
0.0
0.0
0.0
0.0
0.0
0.0
0.0
0.0
0.0
0.0
0.0
0.0
0.0
0.0
0.0
0.0
0.0
0.0
0.0
0.0
0.0
0.0
0.0
0.0
0.0
0.0
0.0
0.0
0.0
0.0
0.0
0.0
0.0
0.0
0.0
0.0
0.0
0.0
0.0
0.0
0.0
0.0
0.0
0.0
0.0
0.0
0.0
0.0
0.0
0.0
0.0
0.0
0.0
0.0
0.0
0.0
0.0
0.0
0.0
0.0
0.0
0.0
0.0
0.0
0.0
0.0
0.0
0.0
0.0
0.0
0.0
0.0
0.0
0.0
0.0
0.0
0.0
0.0
0.0
0.0
0.0
0.0
0.0
0.0
0.0
0.0
0.0
0.0
0.0
0.0
0.0
0.0
0.0
0.0
0.0
0.0
0.0
0.0
0.0
0.0
0.0
0.0
0.0
0.0
0.0
0.0
0.0
0.0
0.0
0.0
0.0
0.0
0.0
0.0
-0.020456835141418602
-0.036410854567450884
-0.006318421070033642
-0.031764837013486855
-0.0061560743124648536
-0.012268184513472948
-0.005425769341584526
-0.05059438171503195
-0.010970627626166246
-0.04291058468680507
-0.0015255713769514825
-0.032200188240248596
-0.0015028192410528297
-0.023797803063881448
-0.011539847069803544
-0.03165049407601007
-0.013301123530805474
-0.014732821369832538
-0.002751479981734026
-0.05107824174564924
-0.0037636102376426327
-0.05744502646195222
-0.003995266817902205
-0.012609702783367156
-0.002763510129163364
-0.013935620875308084
-0.037753278540083715
-0.009291971761320713
-0.020145650729280335
-0.0055301377106079545
-0.0018774054612078124
-0.054918074748613
-0.0038022245894509606
-0.014762434188593805
-0.0010593126031157307
-0.04557631312191572
-0.0012278491676585566
-0.0546424668313915
-0.013166117517626487
-0.0014830766120423732
-0.0012714256557878332
-0.021939792708336448
-0.006074281022120435
-0.04333777291565715
-0.008372418334775983
-0.028394646702531997
-0.03407522094901522
-0.00031012678704904386
-0.027461517312956447
-0.00031284664972126565
-0.008053205772140963
-0.01830763462572598
-0.0054773652231660756
-0.002906085335707378
-0.0015420940004294726
-0.0548855152421474
-0.004790588076483169
-0.03527123514433677
-0.003305954056556607
-0.03774169174108978
-0.0034416460813178106
-0.0512266137132709
-0.003955121634925793
-0.02353100364812287
-0.003341479409544851
-0.01915289993521781
-0.014271114665112944
-0.022898023027395423
-0.048380294558915474
-0.009676728418313647
-0.0396346697386641
-0.02889165450011166
-0.009183902328299985
-0.018714882551711415
-0.0004889300446015187
-0.0383897849285073
-0.0005111186322433736
-0.04649155176230207
-0.014261143902668378
-0.0005010972166702279
-0.00047845477739270296
-0.01748481702032492
-0.0324573547652477
-0.008733210858941761
-0.014253579654331163
-0.004380042943762816
-0.0010689103505719909
-0.047439209359873086
-0.0015787334243695611
-0.049255831687183615
-0.004967291761527508
-0.0012096438808502355
-0.000872578149863115
-0.006810382189801626
-0.05587564597258409
-0.0037295309285401757
-0.010871235045646755
-0.0166206372205398
-0.012594809076952767
-0.0038842719237039544
-0.05319057380673955
-0.0064735655573365395
-0.026196556172781202
-0.004619585260350179
-0.04283263971978405
-0.005521260522275778
-0.005433757413936295
-0.000700925488812422
-0.0433584452345981
-0.0009159639327010405
-0.04653057342317839
-0.013962618063843583
-0.017935724667021737
-0.01211772594543248
-0.006901412415814774
-0.015907877332878167
-0.030237150690065207
-0.012219399240295678
-0.023367780501362193
-0.016451314770468385
-0.0017744137769440027
-0.0007639277768713327
-0.044218231183735454
-0.001824841238013545
-0.007310746153367307
-0.0030883145224160627
-0.05662743286952027
-0.006962952214188203
-0.019955062002664392
-0.002419769995783964
-0.04788416299977674
-0.002928559553819702
-0.05248368306984032
-0.0020933029543431
-0.023011546737061482
-0.0018873471918336117
-0.005929683306806964
-0.023196797003758717
-0.0048249888191655215
-0.007644098744809352
-0.03590458668308107
-0.008543773211689578
-0.046490105018692364
-0.0012573256093553237
-0.003196230288156944
-0.0007839138985591565
-0.02591588956562179
-0.04003503518745284
-0.017621866704012622
-3.446030391795945e-05
-0.023475337156393963
-3.4107506003841574e-05
-0.025217367739467457
-0.001961876792621219
-0.0006069568860914411
-0.0416514251592477
-0.0011527187355976608
-0.008125077034390894
-0.00041223298809301307
-0.03743166253519381
-0.00045571599381897957
-0.04103168746313456
-0.005604534735667202
-0.000437362671956277
-0.0003884303577690718
-0.030463419214184412
-0.001792584336763653
-0.041149211077114604
-0.001906715749263394
-0.05690896278915005
-0.002985088574179884
-0.014895907467491754
-0.002358108117499438
-0.02940976712243135
-0.019269843285046495
-0.01146108563577606
-0.016645743727068764
-0.008558702552864585
-0.04037073471252263
-0.011478880044903236
-0.024627368505664004
-0.006350260485699625
-0.010508166734045421
-0.01557596704614872
-0.0001518665623150432
-0.030169353773840883
-0.00015536717182704188
-0.03731366337502188
-0.010678178945614566
-0.00018951994715341757
-0.0001877633375837855
-0.03464009112510248
-0.01054956723174179
-0.008003831864078815
-0.022367334896380937
-0.045896470172098296
-0.009155588394395613
-0.0024326146637637467
-0.05479546321492448
-0.003951172969439709
-0.03991534718075212
-0.004478057346774223
-0.032136499305536824
-0.004342698474453017
-0.04702682396717271
-0.01884011984384457
-0.004540581854740667
-0.048161103775905025
-0.006285771579983413
-0.0420208652721915
-0.00424330991004317
-0.0005794552831606236
-0.0004744015595705372
-0.035819057689253704
-0.000700236270183719
-0.033099341727042174
-0.0007034047778748757
-0.006733539592114693
-0.004236820948230901
-0.014456458895977317
-0.032544453873125365
-0.042627581740104094
-0.0024229881829458794
-0.03301137583363285
-0.002381343547471825
-0.008038557695926263
-0.02582489969240204
-0.006791771540672904
-0.002998663661483861
-0.05698908111528941
-0.001877927424359001
-0.007590275844415037
-0.05438813408220386
-0.0338779505789986
-0.05335463812317018
-0.019890505782979993
-0.02749989379148933
-0.004720055070705824
-0.018818548096967168
-0.0035730418789332286
-0.013480674977910511
-0.009284948952812865
-0.010720685857250497
-0.0008913486783119792
-0.0004845933890660557
-0.03844745331726852
-0.001549226880604474
-0.05114694878004267
-0.021560272555214966
-0.0012324730921573262
-0.00115075469350205
-0.004129169951417224
-0.0018446183064886991
-0.05586400960625539
-0.004580036082211547
-0.009348151678493392
-0.005425528460998356
-0.014749812792481077
-0.01677589808177372
-0.020793262170409076
-0.01214785601666614
-0.0017487360693428432
-0.05058924299971208
-0.0022698696201715845
-0.0027681014952560625
-0.00024071556022282363
-0.02843280325823685
-0.0002439098179713158
-0.0014267234318765375
-0.0002705842223365351
-0.03262548133156427
-0.0004639714052543818
-0.011730396306436994
-0.0405987009733955
-0.012556732677116753
-0.016141958630176582
-0.021520684715114615
-0.04361921178147913
-0.028499294178927447
-0.001107905575419787
-0.040196943499786295
-0.001159491021347676
-0.0335404793435344
-0.004967950623045517
-0.0366936494509752
-0.005243079342156915
-0.043195277045297416
-0.0005560275347015862
-0.024111663161423273
-0.0005466810758359904
-0.021284881215159514
-0.009877436722158978
-0.044720398619631674
-0.024255290279176313
-0.01484617463146289
-0.017213639931829103
-0.0520369550331096
-0.01164870383521559
-0.014197496457104743
-0.021967166214171375
-0.014139894478573539
-0.014726856145192506
-0.006999443385308492
-0.00832724040337081
-0.013636725082825247
-0.028645754259740173
-0.03403969344807262
-0.006146442548843758
-0.0001556428134640112
-0.029409969097265308
-0.00016392596247532553
-0.03495711601212807
-0.004999969170294968
-0.00021340301641827654
-0.00020156427255840266
-0.01579429437692793
-0.017357158028598246
-0.023867670625793373
-0.005432566585235443
-0.008299158364054973
-0.00883515362478329
-0.0031453196736761523
-0.05421360883246721
-0.006075073215263193
-0.0568588076869701
-0.009818922270143499
-0.002450434089426109
-0.0017831052165878834
-0.03173954180476115
-0.0014224741496846765
-0.0003886968202310469
-0.0002717172038879456
-0.0012935058403043534
-0.00039307654777416946
-0.03126212503737638
-0.0006379195191890427
-0.005442433169144253
-0.002724468996522918
-0.057538337777283496
-0.0075010620228264345
-0.01133941652152712
-0.004838496309868036
-0.057538256993467124
-0.0029188837136596537
-0.01033910650554609
-0.006008810351146117
-0.04100915654796204
-0.007445115737966433
-0.05152353421457157
-0.013496376020146644
-0.0009313778200690368
-0.0008467628679837976
-0.036323012109282064
-0.01748646320083356
-0.000756910329037985
-0.042110029652559514
-0.0008238933911901489
-0.009774069969413003
-0.001936794572510757
-0.052770037373248896
-0.002748467065360943
-0.012622559973774811
-4.587695825544911e-05
-0.023065325108034194
-4.611721232678073e-05
-0.0071050731728310584
-0.02515661988090938
-3.8687055635067887e-05
-3.913305543652058e-05
-0.048245012300191896
-0.02178155077424697
-0.0034513690120214235
-0.04682050047820752
-0.004273525315149542
-0.053873301081124286
-0.008608507218378036
-0.0015191574722902151
-0.0011953815372180365
-0.03443696689185879
-0.007933500032283412
-0.030409967039170805
-0.007675603477688972
-0.005085834151284921
-0.009076804181520811
-0.01366150808770199
-0.010224100703980091
-0.008869732583216395
-0.004257929927373388
-0.010226909159314629
-0.0042220071530388705
-0.0012584711575010221
-0.051049475745285885
-0.0022556307370133915
-0.05575709392571294
-0.01833645950691781
-0.020922493509035488
-0.025950683666235066
-0.025692164302535406
-0.0075266879264651015
-0.009446271364959902
-0.013380384007820878
-0.0032090698205019252
-0.052761338181473216
-0.0047926023533464346
-0.006279318737786943
-0.004505223940388013
-0.018522788272600798
-0.04991650122709859
-0.016352915806564283
-0.029525618652619188
-0.0038087582709825365
-0.04124561493145788
-0.004251727728606973
-0.0007721799765080052
-0.00028589044090052547
-0.030139476551230567
-0.000615007478542746
-0.02731588281317264
-0.028178545545933954
-0.03900686008295024
-0.01649302096437927
-0.012192263186021238
-0.007910979754232592
-0.0190551082529512
-0.03439206132893129
-0.04239137805570093
-0.05461136706479142
-0.0025517479096084663
-0.01996643453573047
-0.0021823193167094163
-0.04704997608791861
-0.003106316507532067
-0.029026121250294138
-0.0028898029095257667
-0.023632397734905174
-0.001887105658805975
-0.0451543823291019
-0.002134637569290764
-0.010203371664800282
-0.0010045940804416
-0.04659285077687289
-0.0012665651760654312
-0.011515027081142564
-0.005972636710331149
-0.013510475928076015
-0.03876935282346345
-0.006321065611318076
-0.03668210983634977
-0.006941498459066761
-0.016127070528880006
-0.010039828778537714
-0.0015340389428055033
-0.00020189121881944674
-0.025501106639075524
-0.00022644765899457948
-0.014002645732116799
-0.013181163529336874
-0.030253916120097507
-0.006015783333750883
-0.0010559474600352176
-0.04740176896358591
-0.0014092856050374636
-0.0055445311807585645
-0.028458227959695406
-0.005036512940674939
-0.02530531670848268
-0.00035808747053988526
-0.033543771362286395
-0.0003634382943054418
-0.029851244011744292
-0.0015441928111021013
-0.00028280057838596547
-0.0002206138289465177
-0.0005523714791576791
-0.0002496556887938195
-0.028007777361778945
-0.0006387712229385832
-0.002776586388682574
-0.0009428229501279461
-0.047289846804948035
-0.0019757829345233113
-0.010728930678471076
-1.9681196689532948e-07
-0.012665487279766036
-3.5596514919788835e-07
-0.03066111545130846
-0.010232872870978033
-0.006654545870209881
-0.01852165733936376
-0.045144683118260726
-0.0008922951331299815
-0.026762685928896197
-0.0008694459544315311
-0.02795335856681674
-0.0020337467671440886
-0.0001835421210453553
-0.0001621929492463746
-0.004182914406435553
-0.008532228614121947
-0.010285064024386429
-0.04168787878763603
-0.01794338721914401
-0.050035447859135815
-0.0045436467020970326
-0.001441652271429551
-0.0009587100833260531
-0.05352161843734705
-0.05178364156603081
-0.05396069576609699
-0.019020958168806168
-0.0016748791313445511
-0.0014952436918904415
-0.048001867249497183
-0.0008035494078683105
-0.007124279089779307
-0.0006842919367971701
-0.050687290637055384
-0.03579530174505783
-0.009079599688765984
-0.0005820840149918568
-0.04091273731842592
-0.0006658591355723625
-0.018414604430438068
-0.0017782644808493832
-0.0008921419049650681
-0.04754226311448181
-0.0025560920407801434
-0.029525920480461848
-0.000901890890767623
-0.0004369895939249912
-0.0002524106625614616
-0.031163028212605925
-0.02537370549723578
-0.02863995776220394
-0.015680250886576496
-0.043377110357385264
-0.003818622489984899
-0.05736250247534897
-0.0021272254280139554
-0.006934386257857364
-0.024580695701688308
-0.01546114882180946
-0.007970839904555797
-0.01244530156923431
-0.05177303511556564
-0.0069719121790204714
-0.009741408448921676
-0.006852362710002146
-9.22538756686301e-05
-8.5374442899873e-05
-8.275322542580656e-05
-0.026733879761966978
-0.0038580027346862083
-0.025837473881908875
-9.464291753748617e-05
-0.009320137930868892
-0.02621146236190091
-0.00788362372737719
-0.022263426491434295
-0.021064119710680913
-0.00743941415188844
-0.021601758689802845
-0.0056389498971739045
-0.035632277968768236
-0.020949329355831672
-0.04682257188847109
-0.0018357846268759654
-0.029155699404148874
-0.0017577117836229394
-0.04194233383815004
-0.03526367747717144
-0.0023736082770375467
-0.03825269372614058
-0.0017994905118616277
-0.038425883214719375
-0.03621560764298771
-0.0024632787833786724
-0.0018254845269834177
-0.004954080410263934
-0.014853500122951922
-0.0034247700582357345
-0.04769533400782761
-0.0019247793670244563
-0.05124108815868618
-0.0011206819202605033
-0.004034743910042385
-0.0249688734584895
-9.186161758892943e-05
-0.023684715512755427
-9.357395882796335e-05
-0.0017811950276413631
-0.00010909019070825905
-0.021822878780035478
-0.00011817749360756136
-0.008771238079019915
-0.009280183178145676
-0.032821853139509985
-0.0030260138859150333
-0.00010919940314240726
-0.02366488434321906
-0.00011731801043594459
-0.026864954129844746
-0.0024149708517052517
-0.00013614079350622102
-0.00012420527958231138
-0.02145606387762173
-0.022894573774888103
-0.0013092327026855036
-0.04382278395030572
-0.0014393081326867284
-0.005827565976578257
-0.0023363274860027567
-0.05669100558775927
-0.005168877842479702
-0.02990810643519404
-0.0028451926653023218
-0.04184164402106362
-0.0031138447625257237
-0.005013843421328036
-0.022015091072728744
-0.004208788678630294
-0.01804983153054198
-0.05536473541511287
-0.05710340849050513
-0.008970580433853606
-0.02145133685127114
-0.006617727619540012
-0.036585048986952425
-0.017079762819463464
-0.0001823408519402138
-0.00018234331981393473
-0.01606582972689127
-0.0024116131833580544
-0.050121743666449156
-0.003091464077972879
-0.041361672001489276
-0.0032876036052453617
-0.033170252263537696
-0.003224160893088902
-0.012036806120850178
-0.0319759144225072
-0.023378832603773325
-0.012135454099244979
-0.012957878747912313
-0.045895112349825615
-0.0003009134926803486
-8.570216631072215e-05
-0.01827883759097494
-0.00015829988150587186
-0.02339866669675939
-0.056907545825991654
-0.011082026126608826
-0.018530321970370047
-0.012824428778835583
-0.005314348724764182
-4.795134843850077e-06
-0.00793848943277043
-0.018459097398368044
-0.01652295833134303
-5.0449813099063285e-06
-6.131080180660675e-06
-5.824564281701035e-06
-0.028113156404996037
-0.0033967885117873317
-0.003531569090343614
-0.01824496708280882
-0.013994753614918342
-0.0028885589634873414
-0.002618431699497235
-0.042889377931940295
-0.018344938483825932
-0.006936069206325625
-0.026898804008853732
-0.006051382062278879
-0.01434437590046473
-0.04811887339863929
-0.01842698082541252
-0.0018015454801490521
-0.047712980760265214
-0.0021373047603563955
-0.037925160833267114
-0.005419691212825465
-0.044584090060836704
-0.007129860740584994
-0.041434364650813314
-0.018621159462815534
-0.0036632617682614745
-0.048955732553117255
-0.004878488649655715
-0.04247287926631157
-0.014593565836917927
-0.00032743513760705964
-0.0003217788122834364
-0.055921503754944084
-0.015945261113494643
-0.0020797994366378953
-0.001753942335662011
-0.0256999568926283
-0.011665097618640433
-0.02798076453563899
-0.04960070200224657
-0.009456142571105117
-0.0063327145350622555
-0.0116096090842403
-0.03030734676729366
-0.014617301137646883
-0.0077817511143857925
-0.005006553851273404
-0.01626635651428916
-0.004316428095888792
-0.026296005172907047
-0.0038245467181257375
-0.007800702442012727
-0.002475499030701351
-0.004505020540618959
-0.039761553140625065
-0.05184211419778201
-0.024213575039143714
-0.0027584887427519215
-0.002445289610856185
-0.012000231530614762
-0.00036823720636887847
-0.03698619887403673
-0.0003898131172435187
-0.04267971664677151
-0.007905360974419998
-0.00041110245510776354
-0.00038212411516433875
-0.017760852754769595
-0.009814605690182308
-0.026392406333735394
-0.007118836422633747
-0.0033676191446624323
-0.008391053466533516
-0.025244913392167678
-0.0007295900059466829
-0.00024603027738856253
-0.00016074660447896205
-0.035406211843687786
-0.013060568828991617
-0.03184329040714165
-0.00018705269893612967
-0.00019385277416521216
-0.03520405370865055
-0.003920036685301595
-0.03687492218528627
-0.0040724299247680154
-0.021868755810315096
-0.011511152948512793
-0.002563282662721396
-0.05384145171431975
-0.0037926742792524317
-0.057499314082989916
-0.0029400556665174216
-0.009336458137077177
-0.00199922506131621
-0.04588377473194544
-0.018954089879370535
-0.055739396015276194
-0.04809728802984639
-0.0007190849986954769
-0.019655834005643028
-0.0006871716988090241
-0.008832226889472378
-0.0032758091704055666
-0.04573044512991119
-0.0077480433812446535
-4.8498057914706914e-05
-0.023471025697361557
-4.945832911178384e-05
-0.022319731152076076
-0.0036987247309043284
-3.5722216633084316e-05
-3.398858959706488e-05
-0.03725634994036739
-0.007237883929597768
-0.004210491505564599
-0.012793234960363211
-0.03923732906741172
-0.0010844224798251078
-0.033463188120798334
-0.0010840745128855673
-0.010774717599372449
-0.0007546025211615136
-0.0013162094061835963
-0.022027402756966054
-0.019149455365276923
-0.005338027033377712
-0.032219097897301326
-0.005199421531161914
-0.00048794592468189496
-0.00011183621292011023
-0.02165285204137788
-0.00017748420668319226
-0.03277847778401196
-0.05552331099660934
-0.054980620536812234
-0.007440395140706516
-0.0017483858618472469
-0.053208805418747285
-0.0026791082595444115
-0.04812703609457818
-0.0009849031175562305
-0.005376068044782114
-0.0007662008878317704
-0.025259202993133126
-0.0002506274479980299
-0.031038152667909717
-0.000255368460973831
-0.021296374528658603
-0.02670140983428028
-0.0006235069253409138
-0.03733769653355626
-0.0006413434837659512
-0.05028466741546956
-0.010761086655217382
-0.0031006389078436177
-0.005186737436978072
-0.03879436966505184
-0.0005007821802158668
-0.027856920402434645
-0.0004966718280678468
-0.005169763424241698
-0.003340938348386325
-0.012832210645277547
-0.011348607614536594
-0.0063999937642856145
-0.0006380829072960377
-0.043401421653098994
-0.0008899227798136515
-0.016592406874258676
-0.0005495689982352312
-7.382091690545711e-05
-5.884375880603997e-05
-0.004087696961619158
-0.007570584626531751
-0.019559610892507597
-0.007514238208818865
-0.013084144083899235
-0.02926232217141291
-0.01258500593151908
-0.015807570199175478
-0.0044625146176287345
-0.006799748916016163
-0.0005984332979193748
-8.99882453747865e-05
-0.0197677045528444
-0.0001134961420158831
-0.00865789084007481
-0.008584856060146567
-0.004656914606868379
-0.012400820457817803
-0.04074300166679577
-0.021196313603086644
-0.00034210412854768023
-0.00033927789421437965
-0.010212614253256138
-0.056000997372412396
-0.0038213991021070178
-0.0015795005224745284
-0.05399471773869622
-0.0035865043703944676
-0.026436616319519914
-0.022202649881660572
-0.01177231409478113
-0.05088018265354451
-0.006938180963754362
-0.03311356274638324
-0.007060353553640231
-0.00460382799949119
-0.045510784078097846
-0.005891687759244678
-0.024216378656515793
-0.0137229938458811