# vtk DataFile Version 1.0
2D Simulation C++
ASCII
DATASET UNSTRUCTURED_GRID
FIELD FieldData 1
NODES 1 2 int
2209 4256

POINTS 2209 double
0.0 0.0 0.0
0.0 1.0 0.0
1.0 1.0 0.0
1.0 0.0 0.0
0.0 0.02500000037252903 0.0
0.0 0.05000000074505806 0.0
0.0 0.07500000298023224 0.0
0.0 0.10000000149011612 0.0
0.0 0.125 0.0
0.0 0.15000000596046448 0.0
0.0 0.17499999701976776 0.0
0.0 0.20000000298023224 0.0
0.0 0.22499999403953552 0.0
0.0 0.25 0.0
0.0 0.2750000059604645 0.0
0.0 0.30000001192092896 0.0
0.0 0.32499998807907104 0.0
0.0 0.3499999940395355 0.0
0.0 0.375 0.0
0.0 0.4000000059604645 0.0
0.0 0.42500001192092896 0.0
0.0 0.44999998807907104 0.0
0.0 0.4749999940395355 0.0
0.0 0.5 0.0
0.0 0.5249999761581421 0.0
0.0 0.550000011920929 0.0
0.0 0.574999988079071 0.0
0.0 0.6000000238418579 0.0
0.0 0.625 0.0
0.0 0.6499999761581421 0.0
0.0 0.675000011920929 0.0
0.0 0.699999988079071 0.0
0.0 0.7250000238418579 0.0
0.0 0.75 0.0
0.0 0.7749999761581421 0.0
0.0 0.800000011920929 0.0
0.0 0.824999988079071 0.0
0.0 0.8500000238418579 0.0
0.0 0.875 0.0
0.0 0.8999999761581421 0.0
0.0 0.925000011920929 0.0
0.0 0.949999988079071 0.0
0.0 0.9750000238418579 0.0
0.02500000037252903 1.0 0.0
0.05000000074505806 1.0 0.0
0.07500000298023224 1.0 0.0
0.10000000149011612 1.0 0.0
0.125 1.0 0.0
0.15000000596046448 1.0 0.0
0.17499999701976776 1.0 0.0
0.20000000298023224 1.0 0.0
0.22499999403953552 1.0 0.0
0.25 1.0 0.0
0.2750000059604645 1.0 0.0
0.30000001192092896 1.0 0.0
0.32499998807907104 1.0 0.0
0.3499999940395355 1.0 0.0
0.375 1.0 0.0
0.4000000059604645 1.0 0.0
0.42500001192092896 1.0 0.0
0.44999998807907104 1.0 0.0
0.4749999940395355 1.0 0.0
0.5 1.0 0.0
0.5249999761581421 1.0 0.0
0.550000011920929 1.0 0.0
0.574999988079071 1.0 0.0
0.6000000238418579 1.0 0.0
0.625 1.0 0.0
0.6499999761581421 1.0 0.0
0.675000011920929 1.0 0.0
0.699999988079071 1.0 0.0
0.7250000238418579 1.0 0.0
0.75 1.0 0.0
0.7749999761581421 1.0 0.0
0.800000011920929 1.0 0.0
0.824999988079071 1.0 0.0
0.8500000238418579 1.0 0.0
0.875 1.0 0.0
0.8999999761581421 1.0 0.0
0.925000011920929 1.0 0.0
0.949999988079071 1.0 0.0
0.9750000238418579 1.0 0.0
1.0 0.9750000238418579 0.0
1.0 0.949999988079071 0.0
1.0 0.925000011920929 0.0
1.0 0.8999999761581421 0.0
1.0 0.875 0.0
1.0 0.8500000238418579 0.0
1.0 0.824999988079071 0.0
1.0 0.800000011920929 0.0
1.0 0.7749999761581421 0.0
1.0 0.75 0.0
1.0 0.7250000238418579 0.0
1.0 0.699999988079071 0.0
1.0 0.675000011920929 0.0
1.0 0.6499999761581421 0.0
1.0 0.625 0.0
1.0 0.6000000238418579 0.0
1.0 0.574999988079071 0.0
1.0 0.550000011920929 0.0
1.0 0.5249999761581421 0.0
1.0 0.5 0.0
1.0 0.4749999940395355 0.0
1.0 0.44999998807907104 0.0
1.0 0.42500001192092896 0.0
1.0 0.4000000059604645 0.0
1.0 0.375 0.0
1.0 0.3499999940395355 0.0
1.0 0.32499998807907104 0.0
1.0 0.30000001192092896 0.0
1.0 0.2750000059604645 0.0
1.0 0.25 0.0
1.0 0.22499999403953552 0.0
1.0 0.20000000298023224 0.0
1.0 0.17499999701976776 0.0
1.0 0.15000000596046448 0.0
1.0 0.125 0.0
1.0 0.10000000149011612 0.0
1.0 0.07500000298023224 0.0
1.0 0.05000000074505806 0.0
1.0 0.02500000037252903 0.0
0.9750000238418579 0.0 0.0
0.949999988079071 0.0 0.0
0.925000011920929 0.0 0.0
0.8999999761581421 0.0 0.0
0.875 0.0 0.0
0.8500000238418579 0.0 0.0
0.824999988079071 0.0 0.0
0.800000011920929 0.0 0.0
0.7749999761581421 0.0 0.0
0.75 0.0 0.0
0.7250000238418579 0.0 0.0
0.699999988079071 0.0 0.0
0.675000011920929 0.0 0.0
0.6499999761581421 0.0 0.0
0.625 0.0 0.0
0.6000000238418579 0.0 0.0
0.574999988079071 0.0 0.0
0.550000011920929 0.0 0.0
0.5249999761581421 0.0 0.0
0.5 0.0 0.0
0.4749999940395355 0.0 0.0
0.44999998807907104 0.0 0.0
0.42500001192092896 0.0 0.0
0.4000000059604645 0.0 0.0
0.375 0.0 0.0
0.3499999940395355 0.0 0.0
0.32499998807907104 0.0 0.0
0.30000001192092896 0.0 0.0
0.2750000059604645 0.0 0.0
0.25 0.0 0.0
0.22499999403953552 0.0 0.0
0.20000000298023224 0.0 0.0
0.17499999701976776 0.0 0.0
0.15000000596046448 0.0 0.0
0.125 0.0 0.0
0.10000000149011612 0.0 0.0
0.07500000298023224 0.0 0.0
0.05000000074505806 0.0 0.0
0.02500000037252903 0.0 0.0
0.5067964124166141 0.5041065613887737 0.0
0.7120170168539983 0.7036077771009243 0.0
0.7036244644711412 0.29644640742893563 0.0
0.29835735174396794 0.7069889219840513 0.0
0.29595788872944373 0.2972222917953799 0.0
0.7766814420202885 0.5068728076988059 0.0
0.5032907137871951 0.22327064962212934 0.0
0.4933210182732993 0.778673400150327 0.0
0.22428256851077655 0.4973842385269898 0.0
0.8294395460231763 0.8220805904088123 0.0
0.820972271049704 0.17179406475524306 0.0
0.18142308225458406 0.8306100547374906 0.0
0.17197853187433904 0.18103494185100608 0.0
0.6435140030013159 0.5675695009323144 0.0
0.5651039104037925 0.36806235313630525 0.0
0.44309252173942393 0.6356352936306987 0.0
0.3639529326239417 0.4284610272595841 0.0
0.8459159309778475 0.6447216167798612 0.0
0.6451467405388198 0.15692605488343625 0.0
0.351890605624674 0.8426528307382636 0.0
0.15646220365966554 0.3562299535184875 0.0
0.6496006864857288 0.8426181231357919 0.0
0.8426084404968146 0.35960196865429117 0.0
0.15925806810025242 0.6437449559932811 0.0
0.359234213123183 0.1585827985059981 0.0
0.674770237300065 0.4502990991152428 0.0
0.5849320364340767 0.6776266076605607 0.0
0.4482606792286797 0.3214546546658334 0.0
0.3294397928158747 0.5566434915790147 0.0
0.8831878980565204 0.5326704665680505 0.0
0.5320211809522669 0.11443919412251763 0.0
0.46784687911742606 0.8866093364224252 0.0
0.11431136331624019 0.4696930886847407 0.0
0.8984802870286055 0.7432553821234607 0.0
0.7426359861154936 0.10385933572232435 0.0
0.26013147396500197 0.8975317545436856 0.0
0.10465622330087218 0.2591284791736945 0.0
0.7460762696723172 0.8843303061309574 0.0
0.12004094070071179 0.7453486031162629 0.0
0.8822217355212721 0.25745437099261154 0.0
0.2572441683679823 0.11973368018166854 0.0
0.7426769617910184 0.6056762312089471 0.0
0.6098875865133401 0.2524178886383395 0.0
0.3963413108012251 0.7490119564542264 0.0
0.2555348717952466 0.3956777930045465 0.0
0.5246426154760252 0.5929656152971808 0.0
0.8995695526265527 0.8868600175615262 0.0
0.8855465586587913 0.10242361856565425 0.0
0.11693849114250468 0.900787463074016 0.0
0.1017844406568467 0.116670712325095 0.0
0.7624842073896242 0.39393032654045296 0.0
0.23951149551654752 0.6109416083842981 0.0
0.39183984629327917 0.2369635101564854 0.0
0.8984652788588846 0.4386165400370499 0.0
0.4376934679601711 0.10367437739699453 0.0
0.5663107817510272 0.8958144295604976 0.0
0.10427044644722962 0.5648879839431463 0.0
0.7894688139833016 0.74396090964841 0.0
0.7431191922222875 0.21297510745010134 0.0
0.25854330916076923 0.7901028371362633 0.0
0.21276108507982866 0.25818745332584225 0.0
0.7217050469017424 0.8014085142894276 0.0
0.7947899701280665 0.2852471834889017 0.0
0.20675479920807496 0.7185646301220874 0.0
0.28838192960487646 0.20244882200671974 0.0
0.5952670341603736 0.49626472049307535 0.0
0.49220999624292516 0.41267755150866714 0.0
0.4265750867444647 0.5471936895438886 0.0
0.6332699641142485 0.7593385905234694 0.0
0.6530275009276058 0.355668270220087 0.0
0.4972756485822476 0.6933501877432925 0.0
0.3550767856963463 0.6431525722440012 0.0
0.3510736204951793 0.3488100102713645 0.0
0.9175628253480846 0.8168035498418886 0.0
0.816307346415627 0.08530011760176226 0.0
0.18650194330824074 0.9175694979802068 0.0
0.08487307828584956 0.18593858934089835 0.0
0.8290507841333702 0.911048488286237 0.0
0.09201032076345285 0.8291737956702846 0.0
0.9100668920247539 0.1734845092882231 0.0
0.17296063066470402 0.09189231065357045 0.0
0.699244183506688 0.5195500438870725 0.0
0.6498222531761496 0.649693194334078 0.0
0.5138750335522442 0.30455342148858705 0.0
0.30120512334508126 0.48487938272728315 0.0
0.9189859064031488 0.6086549318177714 0.0
0.6142859699169484 0.08673798281281948 0.0
0.3967662076495966 0.9210717044227971 0.0
0.08437813397023707 0.38834774994145754 0.0
0.6655391440128297 0.9201691718540463 0.0
0.08225382773943894 0.6633915056740929 0.0
0.9200062652016529 0.3393139428771318 0.0
0.33951531123531925 0.08239417485705611 0.0
0.822450736800585 0.4386765469139731 0.0
0.5679732597440162 0.8176692557220484 0.0
0.43653368330252357 0.1784658025100425 0.0
0.17951020297512288 0.5655837412528798 0.0
0.4349437326332731 0.45920332374579287 0.0
0.8194383807013568 0.5714286966127942 0.0
0.5694401176873672 0.1826173640437634 0.0
0.43170398269203847 0.8198294648972916 0.0
0.18226576595283434 0.43234842983051636 0.0
0.772319104658208 0.6697342561803683 0.0
0.6690105135296964 0.2270005366135115 0.0
0.3328503947606323 0.7768536562760734 0.0
0.22721520450921265 0.3325562307454223 0.0
0.9300218938855253 0.6855693308420614 0.0
0.6863747565008913 0.07333445004243751 0.0
0.31394256008493354 0.9276248083508621 0.0
0.07501035550675694 0.31302822851417456 0.0
0.5626269808824236 0.7416019654982993 0.0
0.6030457083441221 0.4207446955709756 0.0
0.37672729615392797 0.4993964631023849 0.0
0.7350187790041995 0.4603439966972279 0.0
0.4567986529084099 0.26385252737238635 0.0
0.2675806629879185 0.543288560658682 0.0
0.5885605464928694 0.6153081806712619 0.0
0.4193465209834735 0.38734879241445264 0.0
0.5731263877941773 0.5431972897121639 0.0
0.5497652299441753 0.4500389475940933 0.0
0.9350410322659333 0.4977585803810767 0.0
0.4987538497601011 0.06771216845733107 0.0
0.5029592066344266 0.9327765195773755 0.0
0.06770206757371246 0.5036078531362314 0.0
0.8457186397887283 0.4997773561079024 0.0
0.49778198818157765 0.1550940157781236 0.0
0.4996939703351369 0.8430608183133292 0.0
0.15553872544784186 0.5040461946566761 0.0
0.8456152645450575 0.6993618648018514 0.0
0.6984887398156957 0.15699840248960023 0.0
0.30246823821554436 0.8451548374672079 0.0
0.15709124268841973 0.3023624651221597 0.0
0.77246538855706 0.8391796193857559 0.0
0.8362723511240511 0.23009640123119235 0.0
0.16585111301573735 0.7726325437629102 0.0
0.2290950506640291 0.16566293865315665 0.0
0.7627814175258053 0.32887597446766603 0.0
0.2388765244976743 0.6748019711367412 0.0
0.32694712901232764 0.23855928652855096 0.0
0.6404133417578134 0.3026700606822005 0.0
[...]
POINT_DATA 2209
SCALARS Psi double
LOOKUP_TABLE default
0.0
0.0
0.0
0.0
0.0
0.0
0.0
0.0
0.0
0.0
0.0
0.0
0.0
0.0
0.0
0.0
0.0
0.0
0.0
0.0
0.0
0.0
0.0
0.0
0.0
0.0
0.0
0.0
0.0
0.0
0.0
0.0
0.0
0.0
0.0
0.0
0.0
0.0
0.0
0.0
0.0
0.0
0.0
0.0
0.0
0.0
0.0
0.0
0.0
0.0
0.0
0.0
0.0
0.0
0.0
0.0
0.0
0.0
0.0
0.0
0.0
0.0
0.0
0.0
0.0
0.0
0.0
0.0
0.0
0.0
0.0
0.0
0.0
0.0
0.0
0.0
0.0
0.0
0.0
0.0
0.0
0.0
0.0
0.0
0.0
0.0
0.0
0.0
0.0
0.0
0.0
0.0
0.0
0.0
0.0
0.0
0.0
0.0
0.0
0.0
0.0
0.0
0.0
0.0
0.0
0.0
0.0
0.0
0.0
0.0
0.0
0.0
0.0
0.0
0.0
0.0
0.0
0.0
0.0
0.0
0.0
0.0
0.0
0.0
0.0
0.0
0.0
0.0
0.0
0.0
0.0
0.0
0.0
0.0
0.0
0.0
0.0
0.0
0.0
0.0
0.0
0.0
0.0
0.0
0.0
0.0
0.0
0.0
0.0
0.0
0.0
0.0
0.0
0.0
0.0
0.0
0.0
0.0
0.0
0.0
-0.05719999869053704
-0.08890963965509556
-0.013172301076197594
-0.055715423109423734
-0.013001302135692701
-0.033758143441530795
-0.011491749618004804
-0.0911683098450496
-0.022859746218950514
-0.06794717852568265
-0.0014812345333020509
-0.03798119813417254
-0.0021621352442675853
-0.06980919678251755
-0.03045622566131928
-0.07479354398081547
-0.032830611055534455
-0.039012596006200786
-0.0045056479972628615
-0.06876273191628225
-0.007025421629881306
-0.09045942081409576
-0.007011804819473487
-0.02085306829278344
-0.004933361050775057
-0.03924881874064121
-0.09337512580629209
-0.022579407819721356
-0.04596777950889253
-0.013101472365215562
-0.003166329752330182
-0.07179385034089729
-0.006957580011861345
-0.031169013886687965
-0.0011303866880376483
-0.051041276344024396
-0.0018393867324192192
-0.07346892406849981
-0.017282930575967335
-0.0015500215902832636
-0.0018471183455368158
-0.06306641151808315
-0.012988483767509542
-0.07736294518141137
-0.018286751944219935
-0.07640725416350959
-0.041239766641589515
-0.00010794875428695618
-0.028016825445513656
-0.0003007288639161466
-0.018739854921420454
-0.03506455066385748
-0.011484125377311161
-0.005250022975494497
-0.002574804126389155
-0.07257726980133336
-0.008237155864738523
-0.07606640797214495
-0.005056544053912728
-0.05267675483378338
-0.006194858232340828
-0.09195045538301556
-0.006473495153230127
-0.036036309986228796
-0.0060528246522165265
-0.0558457434711171
-0.03841275412731845
-0.058573479244679594
-0.09941213361885134
-0.024205095138451576
-0.08871061873258218
-0.06112323427798016
-0.021512219980419744
-0.029121882317305666
-0.0003185032333687162
-0.03996894168869692
-0.0006040404454913492
-0.055017435188042585
-0.015495420000000613
-0.0002606754134651722
-0.000535121588272457
-0.051305822981086054
-0.08739932302388649
-0.021120056320980726
-0.03279046810252789
-0.010541201852091578
-0.0015591458094442764
-0.055276460679427424
-0.002754538664451589
-0.06117019536831339
-0.007203468852736715
-0.001434936954071546
-0.0013090096809838432
-0.015396681523322098
-0.09368806630421576
-0.007209179561338624
-0.02034371973692983
-0.043884649339987036
-0.03477645148093096
-0.007418568248214858
-0.08126759327431038
-0.0130254840571535
-0.06913170836322831
-0.008659722744338866
-0.06685924469596027
-0.01115211035673118
-0.01291370328488406
-0.0008243129542543971
-0.0479790387162517
-0.0014394706603114453
-0.09757081431367264
-0.038921430881152116
-0.04469481829748291
-0.03297907539285988
-0.01555360213377208
-0.03399385641976977
-0.08295387076878205
-0.030992797931372218
-0.06726286855081143
-0.04654123529673548
-0.003313986299726738
-0.0011927785587544926
-0.05259933802831993
-0.0031366031900520847
-0.017831032001147218
-0.0057344659605668
-0.0848586355517638
-0.013304476295588528
-0.048464304222828845
-0.0035479211348510456
-0.061407640778484714
-0.005160032488280565
-0.08066052178304654
-0.002410224988798607
-0.029998656391182068
-0.0029284024234609855
-0.011866814310229375
-0.04010574904107805
-0.009673429005271805
-0.017590475776923936
-0.06887476072531522
-0.01929097482798009
-0.05667940166609402
-0.0017206961499032078
-0.005038215428988446
-0.0012074534268177361
-0.06084174623287396
-0.08254166488180517
-0.01765567415044188
-1.4958225024936198e-05
-0.024701910212729963
1.3460732549330832e-05
-0.06768262526767177
-0.004162433392945312
-0.0009193168645860308
-0.04759951116839445
-0.0020057125878407685
-0.015574407181603965
-0.0003316001724487382
-0.03928612668780901
-0.0006000862077408474
-0.04704324046003146
-0.006634208458301912
-0.00028336534474914253
-0.0004780193996601896
-0.058321461336198865
-0.0020552585608995966
-0.04919600329815839
-0.002961784632572413
-0.08701025567934008
-0.004394748972143251
-0.02237918210529374
-0.004009629505281219
-0.08011385483057482
-0.05692024303611205
-0.029782480585988758
-0.04819513890777855
-0.020678010969128267
-0.09610794349196701
-0.026769680832353513
-0.07158621964899646
-0.014039884310274788
-0.022909368059206604
-0.0199169059434101
-3.872223946791237e-05
-0.030323784127425726
-0.000136920791491136
-0.040793597310259895
-0.011030211708164336
-4.275657553797385e-05
-0.0001719924438883159
-0.08717665150566403
-0.027307857874615822
-0.018462407739244124
-0.04727904495163692
-0.08554257837924367
-0.02406442135942869
-0.004147046602524808
-0.07304854914286199
-0.00744004226729044
-0.08716407161645094
-0.007847196082221392
-0.04990106909535428
-0.008330677024331523
-0.09654728864307192
-0.0526326456420646
-0.008802631815378272
-0.07506388864936359
-0.012897996784711053
-0.04924589285723703
-0.005491478065676694
-0.0004818760639284848
-0.0006389843017405585
-0.050150894045679316
-0.0004507454887673394
-0.035264851758558376
-0.0008296264852520817
-0.01468843930546535
-0.008343025953672173
-0.026677069697111016
-0.08108821712498407
-0.07703190714665663
-0.0030481784198554667
-0.04277156110002426
-0.0038797342378941355
-0.018579371928379208
-0.04941415569565013
-0.014834988313897448
-0.005033788483336015
-0.07984395397815111
-0.00317393143042604
-0.012452485724445829
-0.09705885410944501
-0.07207058249827464
-0.09537452334140532
-0.0534263141510624
-0.06953879289214049
-0.00855136567920614
-0.030934496366296256
-0.006658395758160847
-0.036710083978618926
-0.022957463142869648
-0.025373327209957254
-0.001275716158738941
-0.0007428123342380566
-0.044298153046025045
-0.002547224027671633
-0.07021212215978681
-0.02543088061290156
-0.0010704004639165356
-0.0015569536863527802
-0.00877981472691011
-0.0031324509782201387
-0.07506637420028253
-0.008216483302150726
-0.023355034638351712
-0.01143918362640186
-0.02949797104020097
-0.04583929689623582
-0.05950788089032115
-0.030503127908855288
-0.0024621252066867093
-0.06151824479278276
-0.003914171692976459
-0.005900609568567123
-0.0002258998976728526
-0.029394118577506026
-0.00034305351251020307
-0.0031727988217333555
-0.0003410668926563818
-0.03492057083066901
-0.0007549195619005593
-0.030086356228693836
-0.09398454847971495
-0.03425784586807501
-0.04660365333621917
-0.05271591397315402
-0.09830925898808773
-0.048428513250422155
-0.0010014265790729323
-0.04461984171940203
-0.0016100229279048955
-0.08124633026786218
-0.00932711765082059
-0.05865599529041094
-0.010550847916536136
-0.053836354195275826
-0.0002945432642576164
-0.02557493803314276
-0.0006063118517497737
-0.06291525510782872
-0.02395646803349141
-0.09299528027442001
-0.06778472883135798
-0.035961484818110116
-0.04064088224436544
-0.09498832994381087
-0.030980293670731653
-0.03747069923728749
-0.06466726842226209
-0.04011409048316277
-0.04209130867771764
-0.015920914827111596
-0.019808681310863607
-0.029734572721885198
-0.08083555233227177
-0.0897061389335295
-0.009639559132109142
-7.982483893155065e-05
-0.02960779104387642
-0.00018177196515603707
-0.0380823378727478
-0.005438883505174235
-8.105537620368438e-05
-0.00021489839543710525
-0.04014456467441095
-0.04968107263152224
-0.053174292707601954
-0.011363397393671917
-0.017662206842539042
-0.02287528970248622
-0.005815806599646562
-0.08589244423882801
-0.011805051700148408
-0.07993410238106505
-0.014928623453550286
-0.0035264335166387355
-0.0029234518666605377
-0.035586230896063484
-0.002056626163239672
-0.0003841099745401206
-0.0003829868837816148
-0.002802340491098997
-0.0005523735295198421
-0.03359438609390267
-0.0010972646204321004
-0.011877116993400392
-0.004974012253057386
-0.08587813290770567
-0.013752459661738043
-0.02784447637827179
-0.009543760567325015
-0.09056421633332026
-0.005319926172729466
-0.018126363131241996
-0.012654223908003595
-0.07190770314787638
-0.016083215406287762
-0.06505014745701546
-0.016029941206183958
-0.0007479955049909577
-0.001104914421850576
-0.08289077116568871
-0.031534307866668346
-0.000648058518526219
-0.045213473961292855
-0.0011076661898021926
-0.02531329365124009
-0.003009229827070484
-0.06643590124796203
-0.004982197635494589
-0.014103349875174732
6.144641414030066e-06
-0.02298951902823791
-2.9035559100503656e-05
-0.007089887121178202
-0.02606909595786454
-2.208751355972776e-05
9.345384856594011e-06
-0.08089363529497268
-0.056223293860693274
-0.00580724841955952
-0.06613627005353287
-0.008160116992150865
-0.07045671072355777
-0.011969488375454104
-0.0017773859041618797
-0.0018009604947985696
-0.08903983728322944
-0.018342127114439558
-0.05874226346014042
-0.017155760599128458
-0.01053261382370328
-0.01898465876349624
-0.038328197933525585
-0.025986681066568925
-0.022154789089197484
-0.008497900157444577
-0.020120614566963978
-0.009978942164744382
-0.0019905619040421025
-0.062342629795818755
-0.004043533705378177
-0.07960332141438707
-0.047520443462557994
-0.06140586905884278
-0.07452590948640485
-0.07092157949238709
-0.01730178383809073
-0.021430990641159883
-0.03638630319683096
-0.0056917377648519115
-0.07558561630831608
-0.009347736556143554
-0.013043749590252165
-0.00893393132380938
-0.03305658587783357
-0.09914780239940184
-0.046773373902651565
-0.0709953312948394
-0.0063781115253615595
-0.05997444625760069
-0.008071952245945877
-0.0013501709591011671
-0.0004208363280398844
-0.03336254009356508
-0.0010589021945014486
-0.07626174681012828
-0.07420582862204322
-0.07722388333152831
-0.037188146953503975
-0.033170495036122453
-0.018397246508573592
-0.0418931998010703
-0.08872745118190635
-0.08745206195293237
-0.08497061311929116
-0.0033530171833476047
-0.027744496413173492
-0.0035356284470082306
-0.08649228917364982
-0.0044095145635136765
-0.04053077500316438
-0.004979027040008996
-0.05060605759434569
-0.002367799294808906
-0.05460759569127403
-0.0034691326290501477
-0.023251343113418716
-0.0011653791324049269
-0.052458587000390834
-0.001981377398935055
-0.031013025158660612
-0.012935673211911723
-0.0282456278626591
-0.09500934364970244
-0.013399197020871403
-0.0646648142626993
-0.014924493278866698
-0.04682196206132574
-0.02504883999994148
-0.003364504263680943
-0.0002228884747030072
-0.026440830119744605
-0.00034187647445410525
-0.035833501106423166
-0.03610130358920622
-0.06835213715375775
-0.01485440979473567
-0.0014275690762595506
-0.05440049162682014
-0.0023745267819607983
-0.01073366352750946
-0.047649237368008565
-0.01013059601141915
-0.03384397177614911
-0.00016306823390084972
-0.034279079885540874
-0.0003788913684939429
-0.03297882428693956
-0.0021238957823048275
-0.00022674044093479168
-0.0002935697670435876
-0.0008305936147344441
-0.0003731128174697214
-0.031168979933347232
-0.0010940496667674856
-0.0058939155644337484
-0.0014679031180216
-0.05678174213581586
-0.0034182374964930786
-0.0107745246425209
3.67450992924084e-06
-0.01259313238942573
4.813002055294349e-06
-0.07996250193435409
-0.026237988409224002
-0.014703215667248885
-0.0380626528190025
-0.06104102714099294
-0.0006358217935531702
-0.02961371361140937
-0.0010869815661911282
-0.030152216964062308
-0.002486104505711409
-9.860268736280521e-05
-0.00019579574597054778
-0.008306264600647484
-0.017106088053096748
-0.027195713221937874
-0.0956243970766853
-0.0505169271179826
-0.06261075759540623
-0.006860471443118809
-0.0019173435780732945
-0.0014764400930973739
-0.09171745038643507
-0.09836084034475603
-0.07673420107410689
-0.024303195664089852
-0.0017593520708593428
-0.002194309005361203
-0.05835889099882706
-0.0006936107493046542
-0.009145569794516932
-0.0009206127354518538
-0.08577710144315964
-0.08598032919979272
-0.01859101056835948
-0.0005402113107648956
-0.04388681075320075
-0.0009366014233348365
-0.05287929166312749
-0.0030181441561236786
-0.0014128910324677092
-0.05781175145603553
-0.004360604929713859
-0.0323611798728821
-0.001472360183936573
-0.0005367825250970763
-0.00037645793799438005
-0.08285739723775626
-0.0627284354686835
-0.08027778290513042
-0.043458866102710283
-0.08260438774530277
-0.007278880229807818
-0.08161875052549315
-0.003692332466694635
-0.01203296969247266
-0.07035676615501352
-0.043564516097368444
-0.018821349554235395
-0.0284208641227123
-0.09786965890016569
-0.015737257396227524
-0.02168591103866033
-0.009246977892289416
-2.7394702836158734e-05
-1.044768131839602e-05
-7.292883617759299e-05
-0.02827899890694683
-0.0040269583797605335
-0.025902966171406822
-8.952157334536686e-05
-0.022883594589811353
-0.05244629943130044
-0.0179010935366539
-0.06074689685714926
-0.06132725090560833
-0.01666866418942516
-0.04026420280279564
-0.011798676771984299
-0.07697204069357695
-0.05328021738410158
-0.07453422216482992
-0.0019727029743431676
-0.03590762830178467
-0.0026276861690420405
-0.09275901282527109
-0.06910184256355857
-0.003045910766174084
-0.06673625045542428
-0.001966234894560513
-0.048946074863029425
-0.043566319520536155
-0.004086018326396464
-0.002768656631434678
-0.009398547388477726
-0.025366599286468325
-0.006406755589532255
-0.08930326421323294
-0.0030623098631895338
-0.06485464114072713
-0.001806948831638461
-0.006628568286409219
-0.027786983326926706
2.139499532423183e-06
-0.023738127303525387
-6.596107486544684e-05
-0.003386073886381749
-8.63488665342169e-05
-0.022387517230999864
-0.00015701566305357368
-0.021179757630521722
-0.021513204367455897
-0.06701951671337197
-0.005171906357750007
-6.485130045334396e-05
-0.023685366643833507
-0.000139813052414249
-0.028625901538517972
-0.0027647005104483326
-5.2018655080229044e-05
-0.0001376088777324292
-0.06353452686160038
-0.04438987633563363
-0.0013846842846220986
-0.049909780547362115
-0.0021457516029985946
-0.013650186807251921
-0.004103210661825723
-0.07898514895772561
-0.009592754699242926
-0.06622473800287274
-0.004132801590331729
-0.05564317179023131
-0.005502243279318528
-0.009270943745650633
-0.03629791043246363
-0.008144866773898064
-0.053052661813847594
-0.08992387393480006
-0.08944070194013146
-0.02176078071157007
-0.042477337611748746
-0.014490613188090612
-0.04062728943475755
-0.01732543639965648
-3.0424583367838525e-05
-0.0001559251594678865
-0.04100192975184829
-0.003678254957229929
-0.06476547850628274
-0.00556933710778365
-0.08273145126079803
-0.004895679774017913
-0.046556971769202204
-0.005716605069623712
-0.03138027410225956
-0.0820328971466361
-0.06133890640822752
-0.03234334901270636
-0.03115667401631867
-0.09238302032463377
-0.00047200444994123096
-0.0001214153208723512
-0.018989482862566017
-0.00028373248147661864
-0.054892780041264695
-0.08870497323195917
-0.02780498253077936
-0.05051388754165543
-0.03211099626684168
-0.005500064138433775
1.1420635480195442e-06
-0.008016165679660812
-0.018676635997216168
-0.016500568954144163
5.873565935912742e-06
8.249502095988779e-06
1.880928223568353e-06
-0.06747347495233622
-0.0051941376487068995
-0.0057094251674611575
-0.02758242043235963
-0.022081927440263813
-0.005064378689984182
-0.004581459241464113
-0.0981166415585459
-0.053854007311476555
-0.015021288031403266
-0.04884451268653538
-0.012824274770508516
-0.04052175590145384
-0.09550687400672805
-0.04225854020316326
-0.00233228106781018
-0.05756550151600564
-0.0035551375102255956
-0.09202149251273191
-0.011032993288958567
-0.07487630433954227
-0.015094607870675274
-0.09580851356624141
-0.05027191556156342
-0.006502522082982618
-0.07090104560015788
-0.009583564523139219
-0.04838872355207306
-0.015326266887475879
-0.00012426104421326428
-0.0003252296449491746
-0.08079114713889836
-0.02182433079694962
-0.002523831834424532
-0.002733775161588828
-0.07466351472795515
-0.031247565082942002
-0.06285429209684064
-0.09497904236677894
-0.023551152629881618
-0.014041652008941544
-0.025125152807689424
-0.07524150141853825
-0.04151224104708599
-0.018008051056099744
-0.01027905156952363
-0.030988054309085387
-0.007367249720767828
-0.04086524337623417
-0.007148035863880605
-0.01993718127242639
-0.004323560785702051
-0.008560077202333271
-0.07413984046770873
-0.08582111600896014
-0.033507931195181154
-0.003683842463266714
-0.0040453755989346965
-0.01981132731921061
-0.00023814235804243148
-0.03826461828621342
-0.0004592370366841884
-0.04890343962838182
-0.008923942853355108
-0.00022588264824884046
-0.00043813390073586686
-0.05228861258991969
-0.024413008173161218
-0.07154499456146796
-0.016900485551999644
-0.00638969958295941
-0.015962784042374643
-0.02739378117631835
-0.0011026613542417473
-0.00023825370655531343
-0.00022448843553333388
-0.09146893934517898
-0.017824237518141082
-0.032225368490092714
-6.971936580992546e-05
-0.00018872908339637043
-0.0792958735614716
-0.006517367755887989
-0.05428054732521819
-0.007681775145310582
-0.0615146141023146
-0.030497116326451572
-0.004261730686935208
-0.0720136212067089
-0.007144470304520346
-0.08238413037116067
-0.0046791059149311085
-0.014822229021268618
-0.0033589369032588474
-0.09798553324363128
-0.04587654040259473
-0.09483835485061627
-0.06038220982341644
-0.0004547955374898526
-0.02169516228432258
-0.0008258109451625842
-0.020914400690991455
-0.007644561352730973
-0.05330148985467517
-0.009311215663800656
-6.598369600950396e-07
-0.023308528339164917
-3.6593768781153565e-05
-0.022758731014767223
-0.00376267791299299
5.750169323538462e-06
-2.2792656489572717e-05
-0.08980179685295687
-0.016506631072646185
-0.008320544742042774
-0.02415952309582098
-0.058993316024398196
-0.0008858473539280372
-0.03733197285780872
-0.0014353086482160847
-0.028045281271382984
-0.001121563696299791
-0.0022796534819778647
-0.06205894681037362
-0.05566993634980925
-0.010229108065991425
-0.05304278594016032
-0.010480351647317476
-0.000939240769023731
-0.00014263518842323094
-0.022250537857055334
-0.00030113153515583143
-0.08514615166670836
-0.07462597471932088
-0.07837422270575835
-0.018986849096028505
-0.00274583673055332
-0.06634729277764478
-0.004850019105246934
-0.05902406490308454
-0.001033058664497741
-0.007401460860294136
-0.0011017850853696587
-0.031786236187369636
-8.23803463888614e-05
-0.031402496121614804
-0.00024098178005893336
-0.04695993237598262
-0.039835997658220976
-0.0004112532315282868
-0.039272516859999426
-0.0007689896560179575
-0.09776778308214865
-0.02890816163954198
-0.005585779416844991
-0.01009561410340592
-0.049127698425740586
-0.00025004790722201793
-0.02914790235075889
-0.000537668262212248
-0.010191461966953579
-0.006210285625179937
-0.022401363417261566
-0.03076741897779558
-0.014359883805693002
-0.0006851320510497949
-0.04767764220203653
-0.0013604040231518675
-0.01744754376184098
-0.0006987701373452838
-3.60574466146516e-05
-7.357001847755121e-05
-0.007982619274957166
-0.015240788911859352
-0.05544217714202324
-0.017428642545847476
-0.029204535100313612
-0.08198120928823394
-0.03348552465737569
-0.04451532090393543
-0.008761395737363382
-0.013996430489642083
-0.0012259504072947053
-9.991159441855458e-05
-0.019876981155929268
-0.00017601128620684843
-0.020217065245104134
-0.021040795786561154
-0.009461351179797172
-0.024287096138523586
-0.047678790257892095
-0.02184358979297152
-0.00012374343436764764
-0.00033299440128850436
-0.026036612828037826
-0.0947371852890902
-0.008274806031236946
-0.0026316882238195945
-0.06965242055742885
-0.006414394992372247
-0.07333077232173907
-0.06062532699689179
-0.028642291217533984
-0.07873165807848818
-0.01520143589444931
-0.06049767065462758
-0.015362482771888283
-0.008771409146086323
-0.07118900590243989
-0.011997685443193806
-0.058933222084700414
-0.032357040888768444
-0.06712773281819272
-0.0005025866018639721
-0.00020798223535005637
-0.02318990023913425
-0.0005678760386277674
-0.012730576226996321
-0.00460008642287432
-0.08378142988369484
-0.011740737618056338
-0.07273994607458621
-0.055413120115092064