# vtk DataFile Version 1.0
2D Simulation C++
ASCII
DATASET UNSTRUCTURED_GRID
FIELD FieldData 1
NODES 1 2 int
2209 4256

POINTS 2209 double
0.0 0.0 0.0
0.0 1.0 0.0
1.0 1.0 0.0
1.0 0.0 0.0
0.0 0.02500000037252903 0.0
0.0 0.05000000074505806 0.0
0.0 0.07500000298023224 0.0
0.0 0.10000000149011612 0.0
0.0 0.125 0.0
0.0 0.15000000596046448 0.0
0.0 0.17499999701976776 0.0
0.0 0.20000000298023224 0.0
0.0 0.22499999403953552 0.0
0.0 0.25 0.0
0.0 0.2750000059604645 0.0
0.0 0.30000001192092896 0.0
0.0 0.32499998807907104 0.0
0.0 0.3499999940395355 0.0
0.0 0.375 0.0
0.0 0.4000000059604645 0.0
0.0 0.42500001192092896 0.0
0.0 0.44999998807907104 0.0
0.0 0.4749999940395355 0.0
0.0 0.5 0.0
0.0 0.5249999761581421 0.0
0.0 0.550000011920929 0.0
0.0 0.574999988079071 0.0
0.0 0.6000000238418579 0.0
0.0 0.625 0.0
0.0 0.6499999761581421 0.0
0.0 0.675000011920929 0.0
0.0 0.699999988079071 0.0
0.0 0.7250000238418579 0.0
0.0 0.75 0.0
0.0 0.7749999761581421 0.0
0.0 0.800000011920929 0.0
0.0 0.824999988079071 0.0
0.0 0.8500000238418579 0.0
0.0 0.875 0.0
0.0 0.8999999761581421 0.0
0.0 0.925000011920929 0.0
0.0 0.949999988079071 0.0
0.0 0.9750000238418579 0.0
0.02500000037252903 1.0 0.0
0.05000000074505806 1.0 0.0
0.07500000298023224 1.0 0.0
0.10000000149011612 1.0 0.0
0.125 1.0 0.0
0.15000000596046448 1.0 0.0
0.17499999701976776 1.0 0.0
0.20000000298023224 1.0 0.0
0.22499999403953552 1.0 0.0
0.25 1.0 0.0
0.2750000059604645 1.0 0.0
0.30000001192092896 1.0 0.0
0.32499998807907104 1.0 0.0
0.3499999940395355 1.0 0.0
0.375 1.0 0.0
0.4000000059604645 1.0 0.0
0.42500001192092896 1.0 0.0
0.44999998807907104 1.0 0.0
0.4749999940395355 1.0 0.0
0.5 1.0 0.0
0.5249999761581421 1.0 0.0
0.550000011920929 1.0 0.0
0.574999988079071 1.0 0.0
0.6000000238418579 1.0 0.0
0.625 1.0 0.0
0.6499999761581421 1.0 0.0
0.675000011920929 1.0 0.0
0.699999988079071 1.0 0.0
0.7250000238418579 1.0 0.0
0.75 1.0 0.0
0.7749999761581421 1.0 0.0
0.800000011920929 1.0 0.0
0.824999988079071 1.0 0.0
0.8500000238418579 1.0 0.0
0.875 1.0 0.0
0.8999999761581421 1.0 0.0
0.925000011920929 1.0 0.0
0.949999988079071 1.0 0.0
0.9750000238418579 1.0 0.0
1.0 0.9750000238418579 0.0
1.0 0.949999988079071 0.0
1.0 0.925000011920929 0.0
1.0 0.8999999761581421 0.0
1.0 0.875 0.0
1.0 0.8500000238418579 0.0
1.0 0.824999988079071 0.0
1.0 0.800000011920929 0.0
1.0 0.7749999761581421 0.0
1.0 0.75 0.0
1.0 0.7250000238418579 0.0
1.0 0.699999988079071 0.0
1.0 0.675000011920929 0.0
1.0 0.6499999761581421 0.0
1.0 0.625 0.0
1.0 0.6000000238418579 0.0
1.0 0.574999988079071 0.0
1.0 0.550000011920929 0.0
1.0 0.5249999761581421 0.0
1.0 0.5 0.0
1.0 0.4749999940395355 0.0
1.0 0.44999998807907104 0.0
1.0 0.42500001192092896 0.0
1.0 0.4000000059604645 0.0
1.0 0.375 0.0
1.0 0.3499999940395355 0.0
1.0 0.32499998807907104 0.0
1.0 0.30000001192092896 0.0
1.0 0.2750000059604645 0.0
1.0 0.25 0.0
1.0 0.22499999403953552 0.0
1.0 0.20000000298023224 0.0
1.0 0.17499999701976776 0.0
1.0 0.15000000596046448 0.0
1.0 0.125 0.0
1.0 0.10000000149011612 0.0
1.0 0.07500000298023224 0.0
1.0 0.05000000074505806 0.0
1.0 0.02500000037252903 0.0
0.9750000238418579 0.0 0.0
0.949999988079071 0.0 0.0
0.925000011920929 0.0 0.0
0.8999999761581421 0.0 0.0
0.875 0.0 0.0
0.8500000238418579 0.0 0.0
0.824999988079071 0.0 0.0
0.800000011920929 0.0 0.0
0.7749999761581421 0.0 0.0
0.75 0.0 0.0
0.7250000238418579 0.0 0.0
0.699999988079071 0.0 0.0
0.675000011920929 0.0 0.0
0.6499999761581421 0.0 0.0
0.625 0.0 0.0
0.6000000238418579 0.0 0.0
0.574999988079071 0.0 0.0
0.550000011920929 0.0 0.0
0.5249999761581421 0.0 0.0
0.5 0.0 0.0
0.4749999940395355 0.0 0.0
0.44999998807907104 0.0 0.0
0.42500001192092896 0.0 0.0
0.4000000059604645 0.0 0.0
0.375 0.0 0.0
0.3499999940395355 0.0 0.0
0.32499998807907104 0.0 0.0
0.30000001192092896 0.0 0.0
0.2750000059604645 0.0 0.0
0.25 0.0 0.0
0.22499999403953552 0.0 0.0
0.20000000298023224 0.0 0.0
0.17499999701976776 0.0 0.0
0.15000000596046448 0.0 0.0
0.125 0.0 0.0
0.10000000149011612 0.0 0.0
0.07500000298023224 0.0 0.0
0.05000000074505806 0.0 0.0
0.02500000037252903 0.0 0.0
0.5048061121124623 0.5020642227941484 0.0
0.7103984219362569 0.7016350675927852 0.0
0.7014229157988225 0.29415248747364664 0.0
0.29610383042271643 0.7049977871343268 0.0
0.29360630880136634 0.2953633785348782 0.0
0.7748435471996054 0.5050868360782308 0.0
0.5013657935428263 0.2207808824016281 0.0
0.4908552863181165 0.7768015775294976 0.0
0.22219815633636222 0.4953465207608721 0.0
0.8278021952655491 0.8199883064709159 0.0
0.8187088817811825 0.17007262677872967 0.0
0.1792793595098994 0.8287011841114691 0.0
0.16989234185648303 0.1789389279418899 0.0
0.6414889067922633 0.5653115981964356 0.0
0.5630892223644689 0.3657159052841791 0.0
0.44105171355236167 0.6337156222591356 0.0
0.3613383530366872 0.4269625026282163 0.0
0.8439849884223142 0.643172175887423 0.0
0.6430545286576286 0.15485811838241317 0.0
0.34927853241225537 0.841343104629713 0.0
0.15479401376631768 0.35457804891037736 0.0
0.6474893124229859 0.8409219710191979 0.0
0.841177836112468 0.3575656500618637 0.0
0.15724402418230504 0.6420477878295245 0.0
0.35743668150819763 0.15609089461073988 0.0
0.6725241478138584 0.44840365121215625 0.0
0.5826904198346966 0.6754208350158526 0.0
0.4461851955018744 0.3191914258170572 0.0
0.32730323626411983 0.5546126577000304 0.0
0.8813631959137695 0.5307068100973199 0.0
0.5303472997732814 0.11221467116549017 0.0
0.46570070943908976 0.8846876598826033 0.0
0.11222876227873159 0.46813963118426044 0.0
0.8965401960335913 0.7412148035054598 0.0
0.7412192370175952 0.10182295686440962 0.0
0.2574632308100772 0.8963988654042225 0.0
0.10235181193371747 0.2576520356506288 0.0
0.7445462913486225 0.8825253878030684 0.0
0.1175069000427711 0.7435461081978465 0.0
0.8803704060535095 0.2554735688141078 0.0
0.25481135164460145 0.11777188405684505 0.0
0.7404367518264355 0.6040342077044832 0.0
0.6077090453817021 0.24994588121331152 0.0
0.39395689004306583 0.7470387630770577 0.0
0.2534274083800338 0.3939515030314222 0.0
0.5226148825714868 0.5909109916495766 0.0
0.8975237936827133 0.8847100012611601 0.0
0.8836963474908356 0.0996394957318729 0.0
0.11482474800809847 0.8987487550146207 0.0
0.09957190256816013 0.11485575882830015 0.0
0.7607146006393423 0.3917950369969156 0.0
0.2380862720311582 0.6091264617213692 0.0
0.3901925217029051 0.2352832891502236 0.0
0.896340103262376 0.4362836425523763 0.0
0.43575784479468666 0.10164237521360814 0.0
0.5635272309303929 0.8938892112025866 0.0
0.10200912149603965 0.5629825575229008 0.0
0.7874412691225154 0.7418989903644804 0.0
0.7413019451140819 0.21038957784094975 0.0
0.2564314156899427 0.7884329787315666 0.0
0.21114227317791678 0.25636145129840315 0.0
0.7199210131430213 0.8001416885811228 0.0
0.7930017291400835 0.28286479160566125 0.0
0.2047214464883311 0.7167312203684184 0.0
0.2868149048806298 0.2004923453050278 0.0
0.5932888979622374 0.49441173522643483 0.0
0.48996113484135856 0.41132439050821296 0.0
0.42422144646809057 0.5454421426084597 0.0
0.6310583717050452 0.7572625565103209 0.0
0.6509072688745148 0.3537948011093139 0.0
0.49525690342646017 0.692021053421794 0.0
0.3533203673559816 0.6414466627297198 0.0
0.34890865233153817 0.3465235864594216 0.0
0.9151022744337274 0.8150601942110811 0.0
0.8141049056491529 0.08274164852240304 0.0
0.18407439033926437 0.9158976835870477 0.0
0.08297736159504891 0.18419504077977766 0.0
0.8268508932524851 0.9096461873076748 0.0
0.0901633573382046 0.8273033143087115 0.0
0.9082084729239371 0.17116185604760392 0.0
0.17099287439062955 0.08986399540590947 0.0
0.6969712277275935 0.5175777784535857 0.0
0.6481359914698058 0.648047897956377 0.0
0.5119533950505663 0.30232765272730666 0.0
0.2994993057000531 0.4826634396884622 0.0
0.916833112152568 0.6067343707729972 0.0
0.6123954430357941 0.08459799674239027 0.0
0.3948355194567027 0.9196026417215059 0.0
0.08215103330310279 0.386408913894966 0.0
0.6630150717423546 0.9179517533212118 0.0
0.0803384969335987 0.6613585953948248 0.0
0.9179227249496473 0.3375337677493792 0.0
0.3373522795199477 0.08034240019318205 0.0
0.8204364817922288 0.43671198174317666 0.0
0.5658294018791066 0.8154676460407851 0.0
0.43489627473425585 0.17604344142192535 0.0
0.17812259915151227 0.5635527441814737 0.0
0.4329368740280452 0.45685604009303116 0.0
0.8174545925692814 0.5691643761667862 0.0
0.5672659816215228 0.1803539407212174 0.0
0.42948265514098694 0.8177640970894491 0.0
0.18007675320181776 0.43046384537288845 0.0
0.7702559097071444 0.6675803871250173 0.0
0.6674083912106108 0.22479848485220014 0.0
0.33044482705906386 0.774442402282596 0.0
0.2255116145587849 0.33069289574682215 0.0
0.9277902026639154 0.6836686863858448 0.0
0.6839131608579517 0.07152115788989162 0.0
0.31163246569540143 0.9258257388305985 0.0
0.07299124077252785 0.31069954128832183 0.0
0.5601521030175026 0.7394660658922119 0.0
0.6010531125915167 0.4191248708940715 0.0
0.3744323081289918 0.4975778972271042 0.0
0.7325677650959126 0.45834547034956535 0.0
0.4546609344514034 0.26174879335933493 0.0
0.26605313642632794 0.5412561546006768 0.0
0.58662458866255 0.6134525622566335 0.0
0.4169796201050968 0.385689339918591 0.0
0.571054477968019 0.5412437724291688 0.0
0.547523702932356 0.4480931514284731 0.0
0.9329618863183164 0.4957342123353563 0.0
0.49705043317437697 0.06556404383952309 0.0
0.5006582748825217 0.9311367912252998 0.0
0.06558009668529832 0.5018938155763633 0.0
0.8444163134695388 0.49799704500078185 0.0
0.49620147937127196 0.15296915281939377 0.0
0.4978747233707051 0.8412558470711512 0.0
0.15376619835197727 0.5016392349826116 0.0
0.843576193566353 0.6972156402452184 0.0
0.6968461062941033 0.15505991788340898 0.0
0.30014561492155895 0.8429714032097426 0.0
0.1553780277597753 0.3006267623416449 0.0
0.7705302307458571 0.8366127586304977 0.0
0.8343992327911708 0.22785683630781792 0.0
0.16379666860961442 0.7710460274379229 0.0
0.22723718424621528 0.16353584771676885 0.0
0.7610863349832672 0.32656501935946625 0.0
0.23690773515900976 0.6732039853152034 0.0
0.3251025152768521 0.23621334334488833 0.0
0.638243279162422 0.30071864031183093 0.0
[...]
POINT_DATA 2209
SCALARS Psi double
LOOKUP_TABLE default
0.0
0.0
0.0
0.0
0.0
0.0
0.0
0.0
0.0
0.0
0.0
0.0
0.0
0.0
0.0
0.0
0.0
0.0
0.0
0.0
0.0
0.0
0.0
0.0
0.0
0.0
0.0
0.0
0.0
0.0
0.0
0.0
0.0
0.0
0.0
0.0
0.0
0.0
0.0
0.0
0.0
0.0
0.0
0.0
0.0
0.0
0.0
0.0
0.0
0.0
0.0
0.0
0.0
0.0
0.0
0.0
0.0
0.0
0.0
0.0
0.0
0.0
0.0
0.0
0.0
0.0
0.0
0.0
0.0
0.0
0.0
0.0
0.0
0.0
0.0
0.0
0.0
0.0
0.0
0.0
0.0
0.0
0.0
0.0
0.0
0.0
0.0
0.0
0.0
0.0
0.0
0.0
0.0
0.0
0.0
0.0
0.0
0.0
0.0
0.0
0.0
0.0
0.0
0.0
0.0
0.0
0.0
0.0
0.0
0.0
0.0
0.0
0.0
0.0
0.0
0.0
0.0
0.0
0.0
0.0
0.0
0.0
0.0
0.0
0.0
0.0
0.0
0.0
0.0
0.0
0.0
0.0
0.0
0.0
0.0
0.0
0.0
0.0
0.0
0.0
0.0
0.0
0.0
0.0
0.0
0.0
0.0
0.0
0.0
0.0
0.0
0.0
0.0
0.0
0.0
0.0
0.0
0.0
0.0
0.0
-0.05469790249101868
-0.08778204859018603
-0.01266564842749545
-0.0543236485200918
-0.012225443735685813
-0.03286411858963469
-0.010875780903847686
-0.08997951380287819
-0.021701721566730437
-0.06835747608513158
-0.0014831416354079952
-0.037493827325904366
-0.0020197722329575356
-0.06776604703239224
-0.028980851469172963
-0.07251648851936887
-0.03114990213164533
-0.03882904963522329
-0.00434070256562366
-0.06823215901948407
-0.006605036340788158
-0.09055567447443094
-0.0068257274735600455
-0.019924992812505968
-0.00460955403558762
-0.037846781555981014
-0.09146155354417258
-0.02135626194040797
-0.043987637204911195
-0.013104825091942976
-0.002997695159248503
-0.07193625079640902
-0.00653668329343903
-0.0314112406356685
-0.0011036518751441186
-0.05105515192438126
-0.0016991891812268168
-0.07413072607178421
-0.016699176853736897
-0.0015612375104463113
-0.0017280069468372618
-0.06186799303954829
-0.012361939729844262
-0.07591990267240344
-0.01725727057180948
-0.07393812339351029
-0.04203000426150311
-0.00011947096890789544
-0.027682669257835243
-0.00027829235775239403
-0.018160818692207748
-0.033704431629576
-0.010859627481011781
-0.0052674245827435354
-0.002399414374165013
-0.07320518665593195
-0.007671766228064605
-0.07589853752436017
-0.004890392747813827
-0.05181061241290214
-0.005840312194918773
-0.09180884004044074
-0.00626795316861782
-0.03510521516949632
-0.00568216079651392
-0.05373690568207358
-0.03669142867594332
-0.05620065056713124
-0.09849671014389386
-0.02322469082788941
-0.08675765007471699
-0.059251714757904465
-0.020298856854256676
-0.029881066836959565
-0.000321386691176455
-0.0400928744606465
-0.000562064699629391
-0.055879639480313555
-0.01506332894773388
-0.00027858722111776625
-0.000490582193545663
-0.049754725731963156
-0.08566491214182631
-0.02004814587535545
-0.031160295380978247
-0.010791167691694133
-0.0014765783359676212
-0.05583675541129508
-0.0025275201451372842
-0.062302821107771765
-0.006786678844081239
-0.0014731237656891063
-0.0012013878360254383
-0.015114316852554256
-0.09319017080066583
-0.006770056840367954
-0.01942821518240592
-0.04176906340513562
-0.0341004082403321
-0.007047045648669702
-0.08054865494211694
-0.012243709305655012
-0.06828346620858652
-0.008335164869415424
-0.0657481066085503
-0.010506756912534018
-0.0132107833854947
-0.0007978388774811843
-0.048675721221953794
-0.0013160821352196997
-0.09616275610633987
-0.03730165179835271
-0.04255869266695515
-0.031957245451818786
-0.014700356102778617
-0.032476431415629434
-0.08077782466484898
-0.029386263987778893
-0.06493299769066779
-0.04452361395893781
-0.0034289538438325453
-0.0011063724958088723
-0.053593587560448845
-0.002879595895142501
-0.017476671160116534
-0.005405036967334495
-0.0845421618122777
-0.012540163695450926
-0.048430415158834825
-0.0034186453021942806
-0.06096085105632104
-0.004818936359987332
-0.08109351193814367
-0.002394570661954583
-0.029339098502227455
-0.002738955038714908
-0.011445780140884211
-0.03886601232435152
-0.009107814218175029
-0.01681070423654418
-0.06723822464077084
-0.01819782155912806
-0.05786414791125968
-0.0017806410178227777
-0.004664609247012523
-0.0011196930247198544
-0.05859835311185052
-0.08064844501626356
-0.017413617339277526
-1.3905454020794234e-05
-0.025692825550506514
1.0235809615446275e-05
-0.06519038728578003
-0.0042440362010531555
-0.0008518247069013869
-0.04883264819987746
-0.0018345346345394597
-0.015954570256986548
-0.0003296954785302537
-0.039989023766420814
-0.0005420815190776055
-0.04849890543571685
-0.006327379292283316
-0.0002994190209080686
-0.0004362803571771859
-0.058575871978806864
-0.0020159283189632505
-0.04871141073560549
-0.0027655122424159366
-0.08721677923401505
-0.00430377043325523
-0.021545736220019228
-0.0037446888581489784
-0.0787010490699858
-0.05493588716918486
-0.028332255200941958
-0.04699736450121322
-0.019657952447664506
-0.0947692243668769
-0.025380341176965606
-0.06972956092558798
-0.013302273725903816
-0.021706876575388237
-0.02057256100827155
-4.56095849046137e-05
-0.03070718636276718
-0.0001267252225053462
-0.041960796012107046
-0.010566192568376495
-5.255977235405607e-05
-0.00015536670792818026
-0.08501590965665395
-0.02630570588152639
-0.01746943545246517
-0.045490735076883185
-0.0840842513784811
-0.023966168077937618
-0.00392368690828922
-0.07296976210227446
-0.006956944382643823
-0.08674214384683251
-0.007557658458075134
-0.04877404889849369
-0.007857763103189233
-0.09591572448792261
-0.05172471210824429
-0.008396712290601573
-0.07403915532551092
-0.012127924895703858
-0.05054962596140065
-0.005163390576316125
-0.000503357430060549
-0.000581139759770361
-0.05065641164638953
-0.00045853250859039527
-0.034928080241727597
-0.0007733513154213696
-0.014364703473264063
-0.007904078518315876
-0.025554377496898914
-0.07875648332431281
-0.07713527635272793
-0.0030055431168858485
-0.04209388635381722
-0.003644615192496199
-0.017851548298328117
-0.04779328538909317
-0.014018493088781675
-0.004983701469958357
-0.08040576055966568
-0.0029807332230874584
-0.011831340567595282
-0.09660269056320646
-0.07013430517179577
-0.0951221440880254
-0.051085195448352966
-0.06711044767593945
-0.008276535327796401
-0.02990997447185389
-0.006286770577939521
-0.035032623061794346
-0.021934788718007324
-0.02408011988809092
-0.001320037446500588
-0.0006714523560099981
-0.04588330343653248
-0.002330938648459841
-0.0707230801951269
-0.0249239198715687
-0.0010766158201707186
-0.0014540588663579876
-0.008739223842110053
-0.0029505294692315884
-0.07533329313999777
-0.007675880088462388
-0.022698428221736018
-0.010816492061563762
-0.028180960224704905
-0.043702804302936805
-0.057098315008778044
-0.030455102378313687
-0.002383952398287891
-0.06152274925344567
-0.0036472242351376924
-0.006115748226105594
-0.00021646346039606837
-0.030721100725299304
-0.0003112563658292294
-0.0033090639721081085
-0.00031888281356157595
-0.036190000616771086
-0.0006859996877188769
-0.028639615851947103
-0.09214900316487781
-0.03288027698104648
-0.04479894634787993
-0.050428167952640685
-0.09689127960349549
-0.049092294394320085
-0.0010034352594848657
-0.04434776397064678
-0.0014954768935503697
-0.08056443419731989
-0.00893272788287496
-0.05751630221240815
-0.009934533530667268
-0.054488205887948324
-0.0003081687939071857
-0.025065606458178225
-0.0005636453021709675
-0.06113422454193252
-0.022719355205225503
-0.09133352865171133
-0.06528732555010644
-0.03413784987420094
-0.03878529985654654
-0.09400184283697116
-0.02956780533671947
-0.035615428145415115
-0.06240557855053158
-0.03899408808704665
-0.0407155247592484
-0.01504216484558947
-0.01870160176937257
-0.02837618557846289
-0.07878261301345348
-0.0877202096998906
-0.01009897451289942
-8.119207461308907e-05
-0.030618051805308022
-0.00016431175057446713
-0.03975412041186458
-0.005245302469453088
-9.240997909884793e-05
-0.00019508317706437952
-0.038215334154395236
-0.04863463193881482
-0.0512181403805343
-0.01080517913151843
-0.016635228934253593
-0.022503598754225224
-0.00548551232396319
-0.08523048498127898
-0.011100695167066266
-0.0804781780435537
-0.01428386112129929
-0.003500123818411329
-0.0027328254252831055
-0.037016315769062016
-0.0018988552162000703
-0.0004037012515465884
-0.0003518259450254398
-0.0028968521372727397
-0.0005121992254020452
-0.035000258965940695
-0.000980281052957185
-0.011627487558142488
-0.004668499920453457
-0.08587027504287816
-0.01297552015111694
-0.026382039645030993
-0.009356928963944335
-0.0904921089507434
-0.005013349332516079
-0.017299118603465516
-0.012094239309266668
-0.07052228765428883
-0.01512011029775935
-0.06597310271475253
-0.015680184811028307
-0.0007679839523944027
-0.0010221393678923319
-0.08075810747703216
-0.03216350743616796
-0.0006458053584545717
-0.045308372103968306
-0.0010176437625293512
-0.0253570513415853
-0.0028674850256848582
-0.06636371803367687
-0.004632699481471465
-0.014878240536774494
2.2822408930901183e-06
-0.023596345102273094
-2.6555435857372474e-05
-0.006918619114050124
-0.02722106776623454
-2.0183221209512147e-05
6.551501528214592e-06
-0.07973538902479912
-0.05593266799369339
-0.005612175191154309
-0.06539786931532682
-0.007652540949127559
-0.07116085637529708
-0.01145792273327909
-0.001779030551044084
-0.001670725598594197
-0.08758817866790516
-0.017555577428399628
-0.05705866038257794
-0.01621218525540423
-0.009992977171364426
-0.017948169838681027
-0.03747550590052522
-0.024683194623238872
-0.02172994366208071
-0.00801498573141402
-0.01913552722388411
-0.010033067819190266
-0.0018786965970145912
-0.06274718808136827
-0.0037601374317069746
-0.0792228432731164
-0.0452647114314954
-0.059788172406947594
-0.07229120890316432
-0.06993866493607648
-0.016543949490519485
-0.02028536797642743
-0.03598000832581775
-0.00540674296580445
-0.07503367385436052
-0.008744096820662321
-0.012689623146790242
-0.008418675518024455
-0.03192029315404566
-0.09816649681172979
-0.04486068839199025
-0.07057058317678064
-0.006167223484144516
-0.059075993971152894
-0.0076014432841010225
-0.0013850464807005675
-0.000386463470373246
-0.03465108881588003
-0.0009625800599474282
-0.07386413058092885
-0.07168103994280774
-0.07553295974914324
-0.03546368599478805
-0.03202989467265348
-0.017417691802583818
-0.03999673783526777
-0.08664079997751445
-0.08574024129876677
-0.08522803574030827
-0.003293942887161767
-0.02712090806089765
-0.0033179808675548707
-0.08651918738023155
-0.004337636672690156
-0.03977747903542541
-0.00469331647930137
-0.05077829782277866
-0.0023092505953709137
-0.05429287940131485
-0.003233182908385284
-0.023716552315222798
-0.0011168788859923495
-0.05280938255872497
-0.0018174403574736178
-0.03020531055863774
-0.012251730020014203
-0.02689925455894042
-0.09339267965042519
-0.012784852915847545
-0.06313834269868095
-0.014070314833541592
-0.045108143065002264
-0.02372791217450215
-0.003591469444863804
-0.00021031562063107904
-0.027534564751095586
-0.0003102269305800629
-0.034006335979665125
-0.03448898152587964
-0.06623075891126198
-0.015167736848006654
-0.001365022923730994
-0.05504612301296914
-0.0021681529910273674
-0.010387055296914723
-0.046425329887213374
-0.00956226907328817
-0.03463933531984858
-0.00017354668479516083
-0.03428151336203061
-0.0003490296548869048
-0.03459762752906199
-0.0019293251589570452
-0.00024187452434018948
-0.00026689687448280754
-0.0008814592197101498
-0.0003451991083506773
-0.03265350119842374
-0.0009738465071341831
-0.005918476960696497
-0.0013749421659050875
-0.057393462866699205
-0.003176103531103528
-0.010880200229738419
2.851080635511986e-06
-0.013400108254391753
4.478742900291465e-06
-0.07888699170835156
-0.025457227615328783
-0.013921581135361873
-0.03642602698917542
-0.06163437974557905
-0.0006542538388746307
-0.02917451021579759
-0.0010110513878070855
-0.03202740885222294
-0.002317888713503119
-0.00010670180531904286
-0.0001759479512094458
-0.007850046680503913
-0.016183836229859312
-0.026675633862695218
-0.09462496532939818
-0.04825339055484406
-0.06374492945520409
-0.006459615418648227
-0.001946735011803929
-0.0013708306616667283
-0.0908499578120167
-0.09777994903387127
-0.07737315309180605
-0.02372103361441008
-0.0017439688546118067
-0.0020611117174389225
-0.059500871931854674
-0.0007148564772770295
-0.00869109444245172
-0.0008477737498521916
-0.08473676749136023
-0.08381617131890468
-0.018961169791584524
-0.0005307682981917061
-0.0442950607222531
-0.0008462972797123909
-0.05073643977649307
-0.003085991958188877
-0.0013153058258579885
-0.05884177342650173
-0.004012055292107402
-0.03434656747200449
-0.0013309931356769748
-0.0005539914484584597
-0.00034076234454836243
-0.08057100575179124
-0.060367589695192986
-0.07853267818817926
-0.04147730312097035
-0.08098325250822686
-0.007229151780707096
-0.08184910951511963
-0.0034596197010710096
-0.01136232122827625
-0.0689180186963936
-0.041708154440885645
-0.017888919399315754
-0.02702179648184902
-0.09698051372543866
-0.015009661282999976
-0.020553631139316773
-0.00988131355501467
-3.118657789247347e-05
-1.51648231937364e-05
-6.592784501452765e-05
-0.029419781125351693
-0.0038108499949120966
-0.02661972507424056
-8.118594855472277e-05
-0.022025511810428725
-0.05067940142699381
-0.016926354741308602
-0.058238173959613386
-0.059064749079364334
-0.016085311852793854
-0.038927893895091256
-0.011180995325549193
-0.07495850599598743
-0.05092759791818872
-0.07494531204476065
-0.0019602745058555655
-0.035370351062041665
-0.0024680818865875313
-0.09199859442973506
-0.0692274736883505
-0.0029777379505978273
-0.06699312761053024
-0.0019458693557781728
-0.04826680330735013
-0.04310292445616159
-0.0038179015104486775
-0.0025832507579630947
-0.009137578193407376
-0.024382082184463746
-0.006020642751030296
-0.08788835171997876
-0.003090409415110827
-0.06589514835926936
-0.001672279270492176
-0.006175199584442596
-0.028621633353581383
-3.710633317524906e-06
-0.023637729391546392
-5.922270729191069e-05
-0.00363877864524258
-8.560663821096476e-05
-0.023310713918139707
-0.0001438603942868034
-0.020299092070634343
-0.020356296808317735
-0.06519940109069768
-0.0054085159595301325
-6.525182342840408e-05
-0.024868271824185273
-0.00012286163937236735
-0.030575823187419825
-0.0025789238585481435
-5.8177176384122107e-05
-0.00012333174951584808
-0.06156150304942009
-0.04476096855050933
-0.0013596537819357203
-0.04969803478853958
-0.0019903865936273498
-0.013493153454069928
-0.003868519162514634
-0.07888110050041212
-0.009008322458396072
-0.06610969783974494
-0.004029209597951319
-0.05489432233287902
-0.005157619314661806
-0.008954677724134236
-0.03519557847274138
-0.007643289704897237
-0.051456149930348985
-0.09001774596170624
-0.08950118962465646
-0.0210203866299336
-0.04089213354409424
-0.013678806458777237
-0.04154243299718523
-0.01685516075760067
-4.0762281645010625e-05
-0.00014287120197976915
-0.04093109768122907
-0.0035354736934596095
-0.06434589157813803
-0.0052119040508087034
-0.08253482520650869
-0.0047646503283484245
-0.04567858213640653
-0.005378151601017075
-0.029906511266108087
-0.07969030626083246
-0.058887105330172995
-0.030758699680203984
-0.02948394092468492
-0.09202237495480976
-0.00048434001517863156
-0.00011550026955212131
-0.02030053805247011
-0.0002599085658451233
-0.05264858316316487
-0.08835337653973606
-0.02638460224833933
-0.04816371098614648
-0.03045884617470082
-0.005228355732064157
4.5747970748581483e-07
-0.008832097580303552
-0.019581709292994395
-0.01692958616774531
5.406593071163354e-06
7.0709913475701885e-06
9.668915540570162e-07
-0.06513972903957849
-0.005087176854132812
-0.0056125714279645945
-0.02675976046588844
-0.02125617198964082
-0.004750500330213042
-0.004310431882621826
-0.09681520108752766
-0.05189791637220499
-0.014460048025293994
-0.04744058108749746
-0.012083355582740676
-0.03894406643990253
-0.09413565298186316
-0.04251096095380722
-0.0022632393781547976
-0.057257714052784174
-0.003303795655891699
-0.08997238479348957
-0.010563001838090212
-0.07356157425073731
-0.01425144799155081
-0.0940616091662722
-0.0497833207681307
-0.006245822369034226
-0.07012698815224662
-0.008975208972276851
-0.04947389624816544
-0.014839420951263324
-0.00013470980899568392
-0.0002975131854344739
-0.08126277851153665
-0.021173415052239127
-0.00250312932455751
-0.0025626379538439153
-0.07251863208640483
-0.030018798389133492
-0.06079994633476534
-0.09459236429778037
-0.022483514707948325
-0.013283667563366236
-0.02380867177363172
-0.07281762279294877
-0.040510268791286205
-0.017432650464873387
-0.00973394942373253
-0.029738838708357057
-0.007110693285993551
-0.039778659403388685
-0.006755280952156443
-0.019792531314222338
-0.004087552990623881
-0.007999278734756395
-0.07255786324344898
-0.08597432286919712
-0.03275017067884825
-0.003620129190549224
-0.0038054598225614814
-0.02052554790946827
-0.0002391521526158836
-0.0386199598831064
-0.0004232517631058238
-0.0502847336186212
-0.008481975426513461
-0.00024363683992830877
-0.0004057334204836841
-0.05055977115664148
-0.023225642119613005
-0.0689841942565179
-0.016550894907270297
-0.006013571621970616
-0.015126914397038777
-0.028910345392007413
-0.001030183874662112
-0.0002541477490347862
-0.00021231177714344193
-0.08987773184838595
-0.018667458718812664
-0.03266050896310334
-7.539283636049731e-05
-0.00017330321053993716
-0.07888057083302616
-0.006312855250665645
-0.05334468994066842
-0.007223473449276026
-0.059074568714212225
-0.030381871454555797
-0.004074544562939614
-0.07170178984639203
-0.006668452989643311
-0.08280431198865812
-0.0046247237232432195
-0.014154852406040362
-0.0031480635664095477
-0.09713637867153958
-0.043737384553585584
-0.09458945733491152
-0.06117386321971474
-0.00047554764530426433
-0.02124259916882534
-0.0007594166798365477
-0.01979305946539678
-0.007744166398459414
-0.054240686159282736
-0.009844944666591514
-4.30363607780322e-06
-0.024142665375000847
-3.4068772159932856e-05
-0.02387078722961043
-0.0035742730839234287
3.684306183618709e-06
-2.101975980630343e-05
-0.08761770453551761
-0.016067376284254153
-0.007878813863676072
-0.02312292410948871
-0.059455940502871764
-0.0008928819388804644
-0.036938963681434935
-0.0013373951634423431
-0.026956095436738173
-0.0010445407707923824
-0.0020991841027812475
-0.06101809036296855
-0.05444787169442908
-0.009839533255671313
-0.05173804262082929
-0.009895322369752043
-0.0009789566014999768
-0.00013474281205626078
-0.02355224438147861
-0.0002715603062927458
-0.08387873456976293
-0.07453327180382988
-0.07801613741737906
-0.01909109605655179
-0.002603641466287029
-0.06652130421224463
-0.004498375232054146
-0.06018842615727057
-0.0010557593345004851
-0.007011310347600929
-0.0010194768041218623
-0.03246094880614806
-9.051155734531184e-05
-0.031381826082085125
-0.00021965996840470013
-0.04503545579247043
-0.0406318909498833
-0.00041882061793440035
-0.039178366636780274
-0.0007074887215123345
-0.09723835182949868
-0.0285783792695276
-0.005323009034131702
-0.009453010513582846
-0.049880973795592615
-0.00026238779150228705
-0.02868178637353752
-0.0004983162111243023
-0.009978971278435356
-0.005866291000652231
-0.021469213257696126
-0.030149571448994238
-0.014838527692869164
-0.0006662328525563157
-0.048286891545412484
-0.0012485983984605643
-0.018621279422524027
-0.0006552511044535626
-3.812499455142921e-05
-6.683626185863702e-05
-0.007592212298829622
-0.014409353535883166
-0.05306687774189327
-0.016512987872157003
-0.027832846675775576
-0.08008314877325104
-0.03187263551233211
-0.04374950004083583
-0.008353762858318443
-0.013108620650619622
-0.0012857895952873067
-9.706467426777225e-05
-0.02132461142598158
-0.000165496819035536
-0.019118674632705123
-0.020494344132410962
-0.008937038456328672
-0.023198300805085455
-0.04859374944395528
-0.021425850322282357
-0.00013593010680547574
-0.00031016547717914103
-0.024937785329782934
-0.09441529687200266
-0.008353581363169849
-0.0024634773096728537
-0.07000489087409703
-0.005996290218333766
-0.07088530770998272
-0.05992521601033552
-0.02710883960129276
-0.07787569535558621
-0.014533214235146528
-0.05893568130803703
-0.014490753887506896
-0.00839846468704934
-0.07011001634985022
-0.011336256804995599
-0.05670156062244867
-0.030704568463849263
-0.06513684534083525
-0.0005214297555998012
-0.00019268663712430358
-0.024539846769765724
-0.0005178125939467635
-0.012574946924224154
-0.004329005742749553
-0.08371872859721333
-0.01107825310395029
-0.07100639460159971
-0.053014138744277045