# vtk DataFile Version 1.0
2D Simulation C++
ASCII
DATASET UNSTRUCTURED_GRID
FIELD FieldData 1
NODES 1 2 int
2209 4256

POINTS 2209 double
0.0 0.0 0.0
0.0 1.0 0.0
1.0 1.0 0.0
1.0 0.0 0.0
0.0 0.02500000037252903 0.0
0.0 0.05000000074505806 0.0
0.0 0.07500000298023224 0.0
0.0 0.10000000149011612 0.0
0.0 0.125 0.0
0.0 0.15000000596046448 0.0
0.0 0.17499999701976776 0.0
0.0 0.20000000298023224 0.0
0.0 0.22499999403953552 0.0
0.0 0.25 0.0
0.0 0.2750000059604645 0.0
0.0 0.30000001192092896 0.0
0.0 0.32499998807907104 0.0
0.0 0.3499999940395355 0.0
0.0 0.375 0.0
0.0 0.4000000059604645 0.0
0.0 0.42500001192092896 0.0
0.0 0.44999998807907104 0.0
0.0 0.4749999940395355 0.0
0.0 0.5 0.0
0.0 0.5249999761581421 0.0
0.0 0.550000011920929 0.0
0.0 0.574999988079071 0.0
0.0 0.6000000238418579 0.0
0.0 0.625 0.0
0.0 0.6499999761581421 0.0
0.0 0.675000011920929 0.0
0.0 0.699999988079071 0.0
0.0 0.7250000238418579 0.0
0.0 0.75 0.0
0.0 0.7749999761581421 0.0
0.0 0.800000011920929 0.0
0.0 0.824999988079071 0.0
0.0 0.8500000238418579 0.0
0.0 0.875 0.0
0.0 0.8999999761581421 0.0
0.0 0.925000011920929 0.0
0.0 0.949999988079071 0.0
0.0 0.9750000238418579 0.0
0.02500000037252903 1.0 0.0
0.05000000074505806 1.0 0.0
0.07500000298023224 1.0 0.0
0.10000000149011612 1.0 0.0
0.125 1.0 0.0
0.15000000596046448 1.0 0.0
0.17499999701976776 1.0 0.0
0.20000000298023224 1.0 0.0
0.22499999403953552 1.0 0.0
0.25 1.0 0.0
0.2750000059604645 1.0 0.0
0.30000001192092896 1.0 0.0
0.32499998807907104 1.0 0.0
0.3499999940395355 1.0 0.0
0.375 1.0 0.0
0.4000000059604645 1.0 0.0
0.42500001192092896 1.0 0.0
0.44999998807907104 1.0 0.0
0.4749999940395355 1.0 0.0
0.5 1.0 0.0
0.5249999761581421 1.0 0.0
0.550000011920929 1.0 0.0
0.574999988079071 1.0 0.0
0.6000000238418579 1.0 0.0
0.625 1.0 0.0
0.6499999761581421 1.0 0.0
0.675000011920929 1.0 0.0
0.699999988079071 1.0 0.0
0.7250000238418579 1.0 0.0
0.75 1.0 0.0
0.7749999761581421 1.0 0.0
0.800000011920929 1.0 0.0
0.824999988079071 1.0 0.0
0.8500000238418579 1.0 0.0
0.875 1.0 0.0
0.8999999761581421 1.0 0.0
0.925000011920929 1.0 0.0
0.949999988079071 1.0 0.0
0.9750000238418579 1.0 0.0
1.0 0.9750000238418579 0.0
1.0 0.949999988079071 0.0
1.0 0.925000011920929 0.0
1.0 0.8999999761581421 0.0
1.0 0.875 0.0
1.0 0.8500000238418579 0.0
1.0 0.824999988079071 0.0
1.0 0.800000011920929 0.0
1.0 0.7749999761581421 0.0
1.0 0.75 0.0
1.0 0.7250000238418579 0.0
1.0 0.699999988079071 0.0
1.0 0.675000011920929 0.0
1.0 0.6499999761581421 0.0
1.0 0.625 0.0
1.0 0.6000000238418579 0.0
1.0 0.574999988079071 0.0
1.0 0.550000011920929 0.0
1.0 0.5249999761581421 0.0
1.0 0.5 0.0
1.0 0.4749999940395355 0.0
1.0 0.44999998807907104 0.0
1.0 0.42500001192092896 0.0
1.0 0.4000000059604645 0.0
1.0 0.375 0.0
1.0 0.3499999940395355 0.0
1.0 0.32499998807907104 0.0
1.0 0.30000001192092896 0.0
1.0 0.2750000059604645 0.0
1.0 0.25 0.0
1.0 0.22499999403953552 0.0
1.0 0.20000000298023224 0.0
1.0 0.17499999701976776 0.0
1.0 0.15000000596046448 0.0
1.0 0.125 0.0
1.0 0.10000000149011612 0.0
1.0 0.07500000298023224 0.0
1.0 0.05000000074505806 0.0
1.0 0.02500000037252903 0.0
0.9750000238418579 0.0 0.0
0.949999988079071 0.0 0.0
0.925000011920929 0.0 0.0
0.8999999761581421 0.0 0.0
0.875 0.0 0.0
0.8500000238418579 0.0 0.0
0.824999988079071 0.0 0.0
0.800000011920929 0.0 0.0
0.7749999761581421 0.0 0.0
0.75 0.0 0.0
0.7250000238418579 0.0 0.0
0.699999988079071 0.0 0.0
0.675000011920929 0.0 0.0
0.6499999761581421 0.0 0.0
0.625 0.0 0.0
0.6000000238418579 0.0 0.0
0.574999988079071 0.0 0.0
0.550000011920929 0.0 0.0
0.5249999761581421 0.0 0.0
0.5 0.0 0.0
0.4749999940395355 0.0 0.0
0.44999998807907104 0.0 0.0
0.42500001192092896 0.0 0.0
0.4000000059604645 0.0 0.0
0.375 0.0 0.0
0.3499999940395355 0.0 0.0
0.32499998807907104 0.0 0.0
0.30000001192092896 0.0 0.0
0.2750000059604645 0.0 0.0
0.25 0.0 0.0
0.22499999403953552 0.0 0.0
0.20000000298023224 0.0 0.0
0.17499999701976776 0.0 0.0
0.15000000596046448 0.0 0.0
0.125 0.0 0.0
0.10000000149011612 0.0 0.0
0.07500000298023224 0.0 0.0
0.05000000074505806 0.0 0.0
0.02500000037252903 0.0 0.0
0.5062288996452756 0.503745717332556 0.0
0.7117679737480486 0.7033922698235341 0.0
0.7034617468915197 0.29510942841913884 0.0
0.29723077306590384 0.7074421074522504 0.0
0.29510393478270264 0.2977457894290422 0.0
0.7765612359652968 0.5062800971070679 0.0
0.5024224586441433 0.22258329537411048 0.0
0.49261819537840856 0.7790885893258004 0.0
0.22331016790693184 0.49782497514058155 0.0
0.8289554321543402 0.8218979030073292 0.0
0.8204050858470501 0.17196881190149546 0.0
0.1809870405748503 0.8303454566571622 0.0
0.1716110595941034 0.18091837079785816 0.0
0.643447489940554 0.5665632064083292 0.0
0.5642550826387225 0.36729870257905595 0.0
0.44204764369637717 0.6358607402507741 0.0
0.3628232789607007 0.4291188401994483 0.0
0.8453281374897172 0.6439884673956272 0.0
0.6446279007894452 0.1559878558744653 0.0
0.3508247316031072 0.8428475429884319 0.0
0.15597232751743026 0.35600030217577 0.0
0.6493018447933423 0.8425910815225425 0.0
0.8427015201267406 0.35863532985949353 0.0
0.15879671002934564 0.6442296010879187 0.0
0.3586826716030871 0.15815876810890753 0.0
0.6747537622570303 0.44985660414346623 0.0
0.5839157856908895 0.6775135458188758 0.0
0.44698799197114203 0.3213543781949673 0.0
0.3287758862582396 0.5574163735083627 0.0
0.8830500029191677 0.5319876961558612 0.0
0.5314773938828506 0.11335059338666412 0.0
0.46732583353001494 0.886977575780291 0.0
0.1135016237920899 0.46979380759067074 0.0
0.8981722877932667 0.742517434127357 0.0
0.7423729536198412 0.10332723579888742 0.0
0.25889922759009154 0.8979254747897986 0.0
0.10387449877242129 0.2590103340502464 0.0
0.7453744038507821 0.8839679519394641 0.0
0.11909229154961093 0.7448673359876 0.0
0.882179732019213 0.25669639415272505 0.0
0.25684788952015497 0.11925445867878177 0.0
0.7420599488768105 0.6049921309657795 0.0
0.6096597155123478 0.25153775504637416 0.0
0.3950179657216603 0.7493630294124892 0.0
0.2547524578507032 0.39628358384238555 0.0
0.5242242971403576 0.5933430899634914 0.0
0.8993870169515605 0.8863873259758037 0.0
0.8851305082017439 0.10096525830439787 0.0
0.11621833767831921 0.9003922940531229 0.0
0.10103430988949998 0.11595214835048102 0.0
0.7624025558069983 0.3930088179759294 0.0
0.23869323248940816 0.6118476045959834 0.0
0.39172635561415914 0.23677531351584183 0.0
0.8983169061549519 0.4378639845836252 0.0
0.43712870905117374 0.10280151813593985 0.0
0.5657960486856358 0.8954666677051367 0.0
0.10385004003921997 0.5644058828225854 0.0
0.7890356426863399 0.7436526588962553 0.0
0.7428317089806323 0.21192961557836223 0.0
0.2575939265269165 0.7898128601840044 0.0
0.21187478875630372 0.2575617010469161 0.0
0.7211850869908726 0.8015298312695407 0.0
0.7948412426630668 0.2836663503583788 0.0
0.20603336763041394 0.7190448815137668 0.0
0.2882379625850697 0.20232860706055764 0.0
0.5944150660795872 0.49597267528599287 0.0
0.4915493238445504 0.41278612431093636 0.0
0.42548823863448526 0.547646436377708 0.0
0.6326520998147802 0.7593586710831252 0.0
0.6524720818582409 0.3552310348829895 0.0
0.49627810890562524 0.6939463849531243 0.0
0.3544060577099305 0.6438875480245907 0.0
0.3503434296407783 0.34883651621811573 0.0
0.9168289975617224 0.8164433067673512 0.0
0.8157162149171081 0.08412879360807352 0.0
0.18590477597072735 0.9174365141946296 0.0
0.08424263772174277 0.18566362678459797 0.0
0.828600512172457 0.9111529592107684 0.0
0.0914976295967401 0.829165674966852 0.0
0.9099343441805406 0.1725674340541388 0.0
0.1728020683822068 0.09172770075876595 0.0
0.698766385159832 0.5192250013714865 0.0
0.6492772465216585 0.6497795650295969 0.0
0.5128230253349312 0.3039433666911344 0.0
0.3003599109963842 0.4852768071090774 0.0
0.9188083020394422 0.6082774662899247 0.0
0.613528998241721 0.08639477774852601 0.0
0.39640207481240086 0.9215404547752376 0.0
0.08397049138707802 0.38770681263357726 0.0
0.6647261475456722 0.9198221253412601 0.0
0.08177353365474176 0.6628423806666616 0.0
0.9199313852999622 0.33929030965327944 0.0
0.3387366856624756 0.08205038130199219 0.0
0.822180703995433 0.43713180385049566 0.0
0.5673727458987756 0.817267043557014 0.0
0.43570012320852597 0.17785907252172953 0.0
0.17862804255114131 0.5658142807200801 0.0
0.4339744288054125 0.4595789205639303 0.0
0.819400138446515 0.571041883548733 0.0
0.5685238972652242 0.18203395317935833 0.0
0.43061307001490456 0.8197330571512232 0.0
0.1818029070955534 0.43218096453489474 0.0
0.7714150709193025 0.6690789538010127 0.0
0.6690877281606298 0.22637334266751105 0.0
0.3318607182355729 0.7764126392812525 0.0
0.2265216298102404 0.3323202419398265 0.0
0.9291129514867746 0.6849866147686267 0.0
0.6853244244146359 0.07310041804303992 0.0
0.31341354237391 0.9277258873175511 0.0
0.07461686150558938 0.3125404158714996 0.0
0.5620898810942127 0.7410999693359387 0.0
0.6027507545101614 0.42068690116107393 0.0
0.37545382977868297 0.5003920150065365 0.0
0.7352146758386691 0.45975451864380573 0.0
0.4562594342866451 0.2633319320653308 0.0
0.26700924996771025 0.5437980301345108 0.0
0.5879821841773333 0.615102651611413 0.0
0.41858739146209156 0.38814782672166465 0.0
0.5723758850706484 0.5429758608423887 0.0
0.549005085720531 0.4495578323451042 0.0
0.9346047500517278 0.49746358566265375 0.0
0.49810883863865435 0.06729991593916193 0.0
0.5023134546957514 0.932755624413079 0.0
0.06710777132903895 0.5033042713522148 0.0
0.8457734643090279 0.49944220913231463 0.0
0.4971414474763106 0.15411556495851078 0.0
0.49900059259498647 0.843298623437957 0.0
0.1545229563180723 0.5036303192267901 0.0
0.8452183273124277 0.6988094690110503 0.0
0.6986235041674927 0.15580248866335278 0.0
0.3015362087029896 0.8445353562433255 0.0
0.15645626517943712 0.30263040133199054 0.0
0.7719170868048142 0.838458704170321 0.0
0.8360320307651741 0.22947512148620536 0.0
0.16546927346529652 0.7726851480335631 0.0
0.22868164371454927 0.1651067200831203 0.0
0.7624038092044055 0.32825589537542843 0.0
0.2379386408573383 0.6756872736138068 0.0
0.3263692152462931 0.23850742335529082 0.0
0.6400031375700709 0.30190418340749053 0.0
[...]
POINT_DATA 2209
SCALARS Psi double
LOOKUP_TABLE default
0.0
0.0
0.0
0.0
0.0
0.0
0.0
0.0
0.0
0.0
0.0
0.0
0.0
0.0
0.0
0.0
0.0
0.0
0.0
0.0
0.0
0.0
0.0
0.0
0.0
0.0
0.0
0.0
0.0
0.0
0.0
0.0
0.0
0.0
0.0
0.0
0.0
0.0
0.0
0.0
0.0
0.0
0.0
0.0
0.0
0.0
0.0
0.0
0.0
0.0
0.0
0.0
0.0
0.0
0.0
0.0
0.0
0.0
0.0
0.0
0.0
0.0
0.0
0.0
0.0
0.0
0.0
0.0
0.0
0.0
0.0
0.0
0.0
0.0
0.0
0.0
0.0
0.0
0.0
0.0
0.0
0.0
0.0
0.0
0.0
0.0
0.0
0.0
0.0
0.0
0.0
0.0
0.0
0.0
0.0
0.0
0.0
0.0
0.0
0.0
0.0
0.0
0.0
0.0
0.0
0.0
0.0
0.0
0.0
0.0
0.0
0.0
0.0
0.0
0.0
0.0
0.0
0.0
0.0
0.0
0.0
0.0
0.0
0.0
0.0
0.0
0.0
0.0
0.0
0.0
0.0
0.0
0.0
0.0
0.0
0.0
0.0
0.0
0.0
0.0
0.0
0.0
0.0
0.0
0.0
0.0
0.0
0.0
0.0
0.0
0.0
0.0
0.0
0.0
0.0
0.0
0.0
0.0
0.0
0.0
-0.04079926186911168
-0.07571019130293398
-0.010060966923374976
-0.04771688987920515
-0.009603607093951458
-0.024762380338806098
-0.008643747892761794
-0.08060787573689475
-0.01718376074788376
-0.06465087593929825
-0.0015783378324609226
-0.037012441215204146
-0.0017421439688488662
-0.052013871292086344
-0.021476079319441573
-0.05849388332001172
-0.02348237899516199
-0.031804159975986845
-0.0037884111570169084
-0.06491874852970601
-0.005231761710691127
-0.08474885423791158
-0.005550228562863866
-0.017487623167083032
-0.0038338568159287712
-0.02790242212193972
-0.07593154239421063
-0.016121253388691872
-0.03471682924531549
-0.010007686953014787
-0.002546723305448409
-0.06838764705394654
-0.0052381898010186
-0.02789430393534876
-0.0011413662488655072
-0.05026988178458426
-0.0014397848552939387
-0.07144835747465747
-0.01609545150654293
-0.0015322443140833412
-0.001507289224445012
-0.049245874557128366
-0.009804709676782333
-0.06721729427404156
-0.01339389162509301
-0.05760940736960883
-0.0406882867272698
-0.00020735362576375642
-0.028001960038977484
-0.00026797573463794373
-0.013760320746308995
-0.028082947223453354
-0.00856811328321817
-0.004082873626907698
-0.0020379587158694226
-0.06968546324895884
-0.006518758795247502
-0.06792856061885147
-0.0043749218803006765
-0.04887549332802389
-0.004714889280359878
-0.08495594534203364
-0.005341278869833716
-0.03193746912399024
-0.004680743393040697
-0.03982739096102449
-0.026995586737388576
-0.043106130179027
-0.08757389389185777
-0.01738263539643693
-0.07282742844792275
-0.04885765133672972
-0.015484444970810075
-0.027914315916421344
-0.00041070877146490083
-0.03992679451457875
-0.0005073401582113981
-0.0545536611511781
-0.015282131165353702
-0.00038504246087897267
-0.00046564451659379354
-0.037402455621963634
-0.07007285329848371
-0.01517552964027505
-0.024012182600808195
-0.008411949530442471
-0.001347405697024122
-0.05391900655269495
-0.0020636738885292014
-0.06001664977425575
-0.006252067911370912
-0.0012996675132016732
-0.0010610478580098796
-0.011415565462530107
-0.0855661923519749
-0.005525074872537032
-0.015975930169145985
-0.031122471898169125
-0.026596975829270442
-0.005820704301851995
-0.07456922219630949
-0.009652175000793375
-0.05753331479855996
-0.006934082094228223
-0.06024503838439752
-0.008262659647178263
-0.01100944255393499
-0.0007946060193542995
-0.04741564081947177
-0.0011076794911275977
-0.0837998376365467
-0.027383274061263112
-0.03243099272993349
-0.023655884634051494
-0.011339745454916231
-0.0258947349931994
-0.06393799944310312
-0.0219371289239328
-0.049111915545206504
-0.03268966314862202
-0.0026014299903540186
-0.0009870595208225923
-0.0515078634415483
-0.002401559891159888
-0.013235729545537828
-0.00446356930485681
-0.0787743004339682
-0.010093759536655882
-0.04174906616177567
-0.0031072963804266536
-0.05866895894173077
-0.003911788026655836
-0.07704376230768935
-0.0023396334696947504
-0.02822978427183221
-0.0023283710782103103
-0.009133964417738236
-0.03396270264336105
-0.007279291511668666
-0.012966953006362289
-0.05781908905552348
-0.013995967074522112
-0.05543791971181881
-0.0014601299651503105
-0.004132834754628279
-0.0009705446446651706
-0.046459192921960005
-0.06871889526866684
-0.01772513367744925
-1.9122901815673564e-05
-0.024717699124205596
-6.579457840161007e-06
-0.04996882139748746
-0.0032631488088745303
-0.0007656809130146502
-0.04691889051820002
-0.0014940827274183255
-0.014309600786668033
-0.0003827282282336615
-0.039419560754430184
-0.0004765716600098346
-0.04691500520681745
-0.006332424095447746
-0.00036082681812730225
-0.0004076737800644604
-0.05373389410539823
-0.002017868223334778
-0.04768552767218248
-0.0023125195613365613
-0.08237699499330917
-0.003731547404485255
-0.019641148718166555
-0.0031314568618072136
-0.06491660756321475
-0.04091855214506874
-0.021004195550969787
-0.03597684897110724
-0.014958789101541579
-0.08133547518714065
-0.019372477181725033
-0.05487305286346037
-0.010434109024718535
-0.016896296913513496
-0.019493665621811873
-8.964560686735785e-05
-0.030548167922182828
-0.0001252364620153389
-0.04110929193993636
-0.01093868688419366
-0.00011388072870893739
-0.0001551229306185903
-0.06897329402197476
-0.019535757716965082
-0.013385146830290573
-0.03703933357188136
-0.07412763166387878
-0.018757552805709763
-0.0033822025488344344
-0.0693720045332287
-0.005557756726452199
-0.07733520636847326
-0.006396685970543385
-0.044533191309895144
-0.006308406567676856
-0.08614151112288418
-0.041826415435833195
-0.006892845805127678
-0.06809393876888306
-0.009517048596330851
-0.04881992326721968
-0.00507875207862674
-0.0005144859646501602
-0.0005357461802167729
-0.04854203697557108
-0.0005855457010640336
-0.03513113726942602
-0.0007007497936436753
-0.010988256902908071
-0.006346439586344516
-0.021436426717376725
-0.06318467951058662
-0.07164876967909382
-0.002855490914419606
-0.04049978729844926
-0.0030388472171748106
-0.013689041460197934
-0.04039801928639292
-0.010903453840881757
-0.004005829198935648
-0.0761710923558481
-0.002509340191766824
-0.010270495863337364
-0.08816624304495693
-0.058370908174585026
-0.08767025774184357
-0.03829919531307357
-0.05256815025746355
-0.0067570243812246945
-0.026377536196263013
-0.005100303887389584
-0.025756797819833366
-0.016550098632575637
-0.018225106888199567
-0.0010569233248363175
-0.0005962956128999554
-0.04378043591104743
-0.001987879788493132
-0.06817017681008658
-0.024773435842044684
-0.0011854604549935111
-0.0012912010886589904
-0.006617463182753175
-0.0025090469132915817
-0.07143119811652879
-0.006284068525477041
-0.016960385886088506
-0.008539820787674002
-0.022819556597396196
-0.03235453498385876
-0.0426345241153283
-0.025648376588587228
-0.0022007867829661795
-0.05969852534184874
-0.0029486480092865393
-0.005217205325264011
-0.00024089613904667656
-0.029819832102233025
-0.00027697869394268103
-0.002591140276061306
-0.00031346221505832215
-0.03463585474431177
-0.0005760928512006164
-0.021300305285240892
-0.07754913872174207
-0.02419115802952433
-0.03298724253451326
-0.0389989474667446
-0.08357312329991608
-0.04552887957680548
-0.001095426823059027
-0.044017604191686995
-0.0012870081482369644
-0.06987558320092677
-0.007431398427870775
-0.0521056730556308
-0.007848072847609092
-0.05289579912489932
-0.0004302896851751569
-0.025460151151444572
-0.0005227347860718898
-0.04686998723285962
-0.017136538603178667
-0.07884588969585105
-0.04949979365996278
-0.025936208190561753
-0.029962645258352277
-0.08441200648138313
-0.02190692183073653
-0.026332312431331377
-0.04703618633816035
-0.029122928106421156
-0.030162199301751815
-0.011640444890071013
-0.01422762838628211
-0.022258895645516173
-0.06230865382577404
-0.07161390719003002
-0.009057395647117678
-0.00011813333871104549
-0.029956166443683672
-0.00015361630731230324
-0.03842488546745477
-0.005326852851285339
-0.00014695153773635526
-0.00018988847391238672
-0.028739508462575822
-0.03807720339200042
-0.041034257182598156
-0.008646924009006499
-0.012989266162050568
-0.01720082727382801
-0.004548306172126882
-0.0784033619407992
-0.008844695467575776
-0.07674758105430338
-0.012859679916241946
-0.0030074876292843313
-0.002322467444115275
-0.03535013054043073
-0.0017783865809930896
-0.00036570793271145007
-0.0003171033406282437
-0.0022273559009238493
-0.0004787307373372439
-0.03376735157846708
-0.0008084088305149949
-0.008869878927609143
-0.0038790844482735304
-0.08019710269090322
-0.010723405238727935
-0.019842868767878996
-0.007292807875901449
-0.08427815949317358
-0.004143477660165667
-0.014622740327618355
-0.00966610388792288
-0.06256188286026793
-0.011776826653295784
-0.06384182797805432
-0.015471263076793652
-0.0008606221341933072
-0.0009263988276397201
-0.06666871672146615
-0.029347424293044832
-0.0007306166755393382
-0.04500565102585904
-0.0008806018850606407
-0.02065878018212353
-0.002546533995225144
-0.06383872215981203
-0.003729530949051516
-0.014030888414776321
-1.6617793365500974e-05
-0.023238317877498138
-3.074089947379367e-05
-0.007142621507495836
-0.026356835506823873
-2.423186613313801e-05
-1.1136421512376262e-05
-0.07215570228356087
-0.04720202500247258
-0.004831137864238715
-0.061569475841877025
-0.006072542629338604
-0.06848953881843947
-0.010697583995957494
-0.001636164784722072
-0.001454409646131613
-0.07364147647313056
-0.013525146720906562
-0.04849608969471189
-0.012502102521181195
-0.008008938721744097
-0.01408362020469602
-0.028656405065089537
-0.018499703839510745
-0.016355083525163985
-0.0064469177216249654
-0.015370814751368603
-0.007765206655005154
-0.0016415734289471357
-0.060195053654580125
-0.0030368245791121506
-0.07446156622743942
-0.034058310649825126
-0.046491119000996235
-0.05573608630806958
-0.057283133430708184
-0.012783849746820997
-0.015551717009540663
-0.02877011765992685
-0.004601496114779824
-0.07045786921903417
-0.006886283071874039
-0.009923023186009863
-0.006750958156329562
-0.027259402128380444
-0.08737711516577648
-0.032955087304947346
-0.061427401010176214
-0.0053281582155144305
-0.05512852691992846
-0.006061478171508032
-0.0010581280380354701
-0.00035671506514408605
-0.033060945874102736
-0.0008002800611396191
-0.057243718112985106
-0.055885849711736324
-0.06482895299336222
-0.027779482841733535
-0.02369053654452253
-0.01328853451198198
-0.031782958565783184
-0.07029543273323405
-0.07354212604469104
-0.08072504328930444
-0.0030373037606037183
-0.025418437698560975
-0.002812498787758542
-0.07991193671006537
-0.003926648878338208
-0.03738411122621803
-0.003862538188168626
-0.04543671840720564
-0.002230987285721803
-0.05292577755362336
-0.0026842736285410964
-0.02033673440523291
-0.0011257825015917597
-0.05166577368890111
-0.0015241324427206224
-0.02243867914371045
-0.009608512968454042
-0.02139994290198075
-0.0785299464516779
-0.010177165798858195
-0.05576404805630206
-0.010963888953933725
-0.0333185234575564
-0.017801674393119502
-0.0029394919721853845
-0.00021676179244169025
-0.026637849025834732
-0.0002636788459141162
-0.025449747751495947
-0.025406227395823253
-0.05373703317827762
-0.012225472390060972
-0.0012863486761390726
-0.053552755279591094
-0.0017817709164545223
-0.008399722999123935
-0.041204926377108056
-0.007582457635262852
-0.03308873798933466
-0.0002594100078353254
-0.03439879781251053
-0.00032957889108092885
-0.03307973045285617
-0.0018557889635860858
-0.00024411917710776568
-0.0002479060538853808
-0.000677120356644623
-0.0003146475655660156
-0.030604135639449147
-0.0008242274318183882
-0.004511573289874768
-0.0012240441652718453
-0.055252699410552185
-0.002592151761979452
-0.010993093780247066
2.002155981581091e-06
-0.012791630910286237
3.009660972477461e-06
-0.06655157636661188
-0.01893047657151488
-0.010793840811131297
-0.029638215092221573
-0.059362621609228165
-0.0007881288559063973
-0.02935390089797959
-0.0009076855215082117
-0.030899305149982174
-0.002313679320451881
-0.00013404197108640131
-0.00016916690654436142
-0.006366976922692604
-0.012854656476700461
-0.020222825014985724
-0.08256833364452439
-0.035610198721623396
-0.06118303828019725
-0.005812357601650615
-0.0016464192188158332
-0.0011934679792185462
-0.08249110658754283
-0.08864453270890078
-0.07421166284707256
-0.023040736304644257
-0.0017741858031158843
-0.0017897799631412523
-0.05733234405683308
-0.0007527050625794919
-0.008420126797677951
-0.0007711539926723214
-0.07668157177957538
-0.06852144739541355
-0.016703382754152653
-0.0005772137638768294
-0.04373819207836407
-0.0007397704703003791
-0.0374430209326259
-0.0023813711991406412
-0.0011404859112721715
-0.056296720857960614
-0.0034022025303313505
-0.03253672176062231
-0.0011628230202779147
-0.00044444268783083577
-0.0003054273087584715
-0.06390129159661175
-0.047152221802735074
-0.06341412302697752
-0.03048788856136037
-0.07074347858470426
-0.005594354893249529
-0.07730933695100883
-0.0029150190294122656
-0.00959841533721812
-0.05522735743078002
-0.030587715766801686
-0.013679676228033785
-0.02079111771419226
-0.08696108253307129
-0.011670635566948162
-0.015793829269009883
-0.009065028373149195
-5.909035375314638e-05
-4.2718737861752336e-05
-6.928477787627405e-05
-0.028392956631004926
-0.0040355537769108055
-0.02592419358248378
-8.066603032295296e-05
-0.01663388881910231
-0.04229810195904222
-0.013035763734919461
-0.043898241726782423
-0.04408602056794817
-0.012362994905048186
-0.03292704619665765
-0.008810278329601733
-0.0625204057681835
-0.03893033882713735
-0.07096199143689746
-0.0019809303558617013
-0.03456732176033065
-0.002116944165923004
-0.08146406916268022
-0.0631739091772062
-0.002850417786567643
-0.06244643012024225
-0.0019717136494106155
-0.04668723094210377
-0.04216408525281878
-0.0031583339373357374
-0.002182572509526426
-0.007315623358097795
-0.02109376131093686
-0.004934295088375988
-0.0777171429077848
-0.002468987558166741
-0.06293976387442854
-0.0014484708882943004
-0.005339427219005756
-0.027483616522355755
-3.956121251610592e-05
-0.023813165092912925
-6.61558250259946e-05
-0.003056480000958899
-9.903210337232778e-05
-0.022553593350817087
-0.00012825518185062432
-0.01539853095867745
-0.015524415858616677
-0.054819235720736575
-0.0046856473217752135
-8.823206300271748e-05
-0.023909147596978392
-0.00011415794201183205
-0.029304769194312325
-0.0026561289569562154
-8.825932869245556e-05
-0.0001235632927384268
-0.046707447514164356
-0.040744905268958895
-0.0014034374330214438
-0.04896493936634691
-0.0016832848867552146
-0.01024589382860432
-0.0032495690209778587
-0.0743845916111828
-0.007309286522233574
-0.05887990166838899
-0.0036581466383510818
-0.05245239743277593
-0.004173691753001746
-0.00729822365569312
-0.031209504213248522
-0.006178750747819424
-0.03906673345927676
-0.08444664397120012
-0.08409114418235267
-0.01583771451982057
-0.03390724424005534
-0.010665496279330054
-0.040460598944696204
-0.017173218944698046
-0.00010082880340803729
-0.00014493881799755947
-0.034401295067256185
-0.0031732515441626427
-0.061744190794466886
-0.004178136390865735
-0.0751064585620665
-0.004271287587672524
-0.04303243189480138
-0.004366952501227943
-0.022123503584007345
-0.06352469492840282
-0.045050362067726245
-0.022717590324118988
-0.022373535194294917
-0.08339108691532567
-0.0003796800730564172
-0.00011147623027488692
-0.019202288512510546
-0.0002136643979445033
-0.0414921750915761
-0.08191735817743655
-0.019724158589650802
-0.035868298237975514
-0.022862038675583913
-0.005553113552982452
-7.618519730536525e-07
-0.008199076819176254
-0.01879417083365035
-0.01668983001230373
1.7544516658985184e-06
2.4249399803902175e-06
-7.622048847433467e-07
-0.05172871114877281
-0.004366610799044225
-0.00468175853132624
-0.02440365668412349
-0.019060571446688167
-0.003956344279237693
-0.00358025125290372
-0.08374063406899108
-0.038405293607933245
-0.011321408020346644
-0.04087715831757184
-0.009499129605949065
-0.02862089288598156
-0.0827617210603469
-0.03720163054620807
-0.0021605064229922887
-0.055843582735181134
-0.0027177504136450823
-0.07454428624221875
-0.008523630356505532
-0.06629905539247129
-0.0111145808333196
-0.07971496933719983
-0.04104362038896195
-0.005300301040533537
-0.0656289374127314
-0.007101214071324748
-0.04818441227430078
-0.015277580815049473
-0.00022355623152990758
-0.00028604978372624755
-0.07768465603869235
-0.019924328529795147
-0.002350503028763098
-0.0021952107613267442
-0.056796841610861744
-0.02212298785887815
-0.049108820470719364
-0.08639235596842587
-0.016909016139680356
-0.01034932351557111
-0.01867941300801017
-0.05787532921859448
-0.030535886825480568
-0.013229319609880642
-0.0076901947577638005
-0.02469738494312061
-0.005984943125583244
-0.03616518110547169
-0.0054686730967372
-0.015232504424229097
-0.0034721323708315787
-0.006376374174776401
-0.06327578115751058
-0.08080493887569165
-0.03079618471132152
-0.0033463464837077306
-0.0031738698784658723
-0.018625641785947392
-0.0003067911532361763
-0.038299047580735865
-0.0003819383562642726
-0.048983953947160284
-0.00863881792588295
-0.0003228967643788437
-0.00037891034171140623
-0.03776737963413468
-0.017383252708403046
-0.053169633839608904
-0.012513343532964846
-0.004939233452769833
-0.01229256769552308
-0.027605883898644424
-0.0009244682782909114
-0.00022117928738023027
-0.00019274847685849423
-0.07467313574727229
-0.017416342627156935
-0.03227732786220041
-0.00012541497907495017
-0.00016866712862740013
-0.06996600135168898
-0.005437762052890328
-0.049599896973721753
-0.005774197851990565
-0.044283439223071874
-0.024358091993250484
-0.003532818189143973
-0.06822883528994614
-0.005317144469324715
-0.07854555963269769
-0.0038059861503017987
-0.012531476138536252
-0.0026460376909246556
-0.08618006966754164
-0.03369550041090444
-0.08750838602006834
-0.0594226894837875
-0.0006012121900228907
-0.021481514115317978
-0.000698257027473567
-0.015035458418863572
-0.005938678475608679
-0.0521196336829962
-0.009182015142738836
-2.27290983438443e-05
-0.023527211532630196
-3.6160781160294666e-05
-0.022902197424483656
-0.003733388265133382
-1.133897537302235e-05
-2.3771327248289434e-05
-0.07224440338807323
-0.012224188484463196
-0.006315391922174725
-0.019034096610522747
-0.056518021265463986
-0.0010282673859487628
-0.03683954450146413
-0.0011748707128367841
-0.020030489831193873
-0.0009499097445441692
-0.001704127622267064
-0.04938891336272576
-0.04241424013298745
-0.00806033247518606
-0.04641120951165598
-0.007829568271805991
-0.0007728362878723926
-0.00013239056747273983
-0.022434853320744807
-0.00022716458689651337
-0.07071641386497099
-0.07072236575514994
-0.07325100425219545
-0.015148718109286944
-0.0023135156436600514
-0.06388431453382704
-0.0036269847664521654
-0.05796716762748852
-0.000999670844105381
-0.006629338486897979
-0.0009023218957206312
-0.03114226161678657
-0.00016202068589452176
-0.031540966315305015
-0.00021480705688065694
-0.03601290647725398
-0.038211887635662994
-0.0005279402683089321
-0.03927520095377301
-0.0006369565976513028
-0.0880957510528394
-0.022187686625406974
-0.004475957878139771
-0.007502236654105074
-0.048323706365354956
-0.0003815895972108859
-0.029061267633864362
-0.0004629437008073016
-0.007765895460196183
-0.004801509322587114
-0.018331654895076845
-0.023126010892715456
-0.012685755121716165
-0.0006887828827538552
-0.04722031369290223
-0.0010558307381225668
-0.01750569107004214
-0.0006661547870488475
-4.8820153565186775e-05
-6.34816112841229e-05
-0.006173354747540469
-0.01138440626650746
-0.039343033487252474
-0.012665035793077425
-0.021566308933551933
-0.06431616836968163
-0.023510969527367784
-0.03437348371463327
-0.006815121767352259
-0.010321596720603187
-0.001033070833919356
-9.822539880472275e-05
-0.02014534901738142
-0.0001380475147122518
-0.014584186238193785
-0.015399058447643398
-0.007138213072258279
-0.018780429273215528
-0.04741303177328644
-0.021757974496519165
-0.00023128801060711318
-0.00029857230713926355
-0.01864118203007348
-0.08675780458925879
-0.006354005356349043
-0.0021163658359297623
-0.06677443921412257
-0.004862305482916704
-0.054452579412396306
-0.049287567774937736
-0.020514748173649913
-0.0718907637300444
-0.011393934977848219
-0.051185794605178185
-0.011261666813852529
-0.006938392177416768
-0.06437617918281124
-0.00887346559847166
-0.04426848553169198
-0.023473131559107324
-0.05358687401025291
-0.00040877739023573753
-0.0001800778437816668
-0.022907848557285632
-0.00044856715336449144
-0.00951524766371355
-0.003617862652929047