# vtk DataFile Version 1.0
2D Simulation C++
ASCII
DATASET UNSTRUCTURED_GRID
FIELD FieldData 1
NODES 1 2 int
2209 4256

POINTS 2209 double
0.0 0.0 0.0
0.0 1.0 0.0
1.0 1.0 0.0
1.0 0.0 0.0
0.0 0.02500000037252903 0.0
0.0 0.05000000074505806 0.0
0.0 0.07500000298023224 0.0
0.0 0.10000000149011612 0.0
0.0 0.125 0.0
0.0 0.15000000596046448 0.0
0.0 0.17499999701976776 0.0
0.0 0.20000000298023224 0.0
0.0 0.22499999403953552 0.0
0.0 0.25 0.0
0.0 0.2750000059604645 0.0
0.0 0.30000001192092896 0.0
0.0 0.32499998807907104 0.0
0.0 0.3499999940395355 0.0
0.0 0.375 0.0
0.0 0.4000000059604645 0.0
0.0 0.42500001192092896 0.0
0.0 0.44999998807907104 0.0
0.0 0.4749999940395355 0.0
0.0 0.5 0.0
0.0 0.5249999761581421 0.0
0.0 0.550000011920929 0.0
0.0 0.574999988079071 0.0
0.0 0.6000000238418579 0.0
0.0 0.625 0.0
0.0 0.6499999761581421 0.0
0.0 0.675000011920929 0.0
0.0 0.699999988079071 0.0
0.0 0.7250000238418579 0.0
0.0 0.75 0.0
0.0 0.7749999761581421 0.0
0.0 0.800000011920929 0.0
0.0 0.824999988079071 0.0
0.0 0.8500000238418579 0.0
0.0 0.875 0.0
0.0 0.8999999761581421 0.0
0.0 0.925000011920929 0.0
0.0 0.949999988079071 0.0
0.0 0.9750000238418579 0.0
0.02500000037252903 1.0 0.0
0.05000000074505806 1.0 0.0
0.07500000298023224 1.0 0.0
0.10000000149011612 1.0 0.0
0.125 1.0 0.0
0.15000000596046448 1.0 0.0
0.17499999701976776 1.0 0.0
0.20000000298023224 1.0 0.0
0.22499999403953552 1.0 0.0
0.25 1.0 0.0
0.2750000059604645 1.0 0.0
0.30000001192092896 1.0 0.0
0.32499998807907104 1.0 0.0
0.3499999940395355 1.0 0.0
0.375 1.0 0.0
0.4000000059604645 1.0 0.0
0.42500001192092896 1.0 0.0
0.44999998807907104 1.0 0.0
0.4749999940395355 1.0 0.0
0.5 1.0 0.0
0.5249999761581421 1.0 0.0
0.550000011920929 1.0 0.0
0.574999988079071 1.0 0.0
0.6000000238418579 1.0 0.0
0.625 1.0 0.0
0.6499999761581421 1.0 0.0
0.675000011920929 1.0 0.0
0.699999988079071 1.0 0.0
0.7250000238418579 1.0 0.0
0.75 1.0 0.0
0.7749999761581421 1.0 0.0
0.800000011920929 1.0 0.0
0.824999988079071 1.0 0.0
0.8500000238418579 1.0 0.0
0.875 1.0 0.0
0.8999999761581421 1.0 0.0
0.925000011920929 1.0 0.0
0.949999988079071 1.0 0.0
0.9750000238418579 1.0 0.0
1.0 0.9750000238418579 0.0
1.0 0.949999988079071 0.0
1.0 0.925000011920929 0.0
1.0 0.8999999761581421 0.0
1.0 0.875 0.0
1.0 0.8500000238418579 0.0
1.0 0.824999988079071 0.0
1.0 0.800000011920929 0.0
1.0 0.7749999761581421 0.0
1.0 0.75 0.0
1.0 0.7250000238418579 0.0
1.0 0.699999988079071 0.0
1.0 0.675000011920929 0.0
1.0 0.6499999761581421 0.0
1.0 0.625 0.0
1.0 0.6000000238418579 0.0
1.0 0.574999988079071 0.0
1.0 0.550000011920929 0.0
1.0 0.5249999761581421 0.0
1.0 0.5 0.0
1.0 0.4749999940395355 0.0
1.0 0.44999998807907104 0.0
1.0 0.42500001192092896 0.0
1.0 0.4000000059604645 0.0
1.0 0.375 0.0
1.0 0.3499999940395355 0.0
1.0 0.32499998807907104 0.0
1.0 0.30000001192092896 0.0
1.0 0.2750000059604645 0.0
1.0 0.25 0.0
1.0 0.22499999403953552 0.0
1.0 0.20000000298023224 0.0
1.0 0.17499999701976776 0.0
1.0 0.15000000596046448 0.0
1.0 0.125 0.0
1.0 0.10000000149011612 0.0
1.0 0.07500000298023224 0.0
1.0 0.05000000074505806 0.0
1.0 0.02500000037252903 0.0
0.9750000238418579 0.0 0.0
0.949999988079071 0.0 0.0
0.925000011920929 0.0 0.0
0.8999999761581421 0.0 0.0
0.875 0.0 0.0
0.8500000238418579 0.0 0.0
0.824999988079071 0.0 0.0
0.800000011920929 0.0 0.0
0.7749999761581421 0.0 0.0
0.75 0.0 0.0
0.7250000238418579 0.0 0.0
0.699999988079071 0.0 0.0
0.675000011920929 0.0 0.0
0.6499999761581421 0.0 0.0
0.625 0.0 0.0
0.6000000238418579 0.0 0.0
0.574999988079071 0.0 0.0
0.550000011920929 0.0 0.0
0.5249999761581421 0.0 0.0
0.5 0.0 0.0
0.4749999940395355 0.0 0.0
0.44999998807907104 0.0 0.0
0.42500001192092896 0.0 0.0
0.4000000059604645 0.0 0.0
0.375 0.0 0.0
0.3499999940395355 0.0 0.0
0.32499998807907104 0.0 0.0
0.30000001192092896 0.0 0.0
0.2750000059604645 0.0 0.0
0.25 0.0 0.0
0.22499999403953552 0.0 0.0
0.20000000298023224 0.0 0.0
0.17499999701976776 0.0 0.0
0.15000000596046448 0.0 0.0
0.125 0.0 0.0
0.10000000149011612 0.0 0.0
0.07500000298023224 0.0 0.0
0.05000000074505806 0.0 0.0
0.02500000037252903 0.0 0.0
0.5069347919944696 0.5043757194902758 0.0
0.712492402199965 0.7039345197591463 0.0
0.7037451328134644 0.29619935695389193 0.0
0.29826936736981124 0.7075690154440449 0.0
0.2961192438673982 0.2973682703270525 0.0
0.7771976027107174 0.5067902453024183 0.0
0.5036487535031372 0.2234557606926971 0.0
0.49334023331495724 0.7793782217178093 0.0
0.22429877105222773 0.49778363600130315 0.0
0.8300314757754744 0.8226260752408011 0.0
0.8208654066177091 0.17247509227823046 0.0
0.1815649915451275 0.8310038745803914 0.0
0.17226619510173224 0.18131562255704933 0.0
0.6438701251502997 0.5673710747678242 0.0
0.5650430764730047 0.36865185719150395 0.0
0.44311555451793555 0.6359062782864822 0.0
0.36380527420527015 0.42925527329955093 0.0
0.8462487655167389 0.6453860025015072 0.0
0.6454920464270288 0.15691590383068982 0.0
0.3515197631633148 0.8435234006030775 0.0
0.15669027012302927 0.356635354158956 0.0
0.6497721205604974 0.8427402680960396 0.0
0.8431513385827675 0.3593497811557454 0.0
0.1594192679623557 0.644712668407764 0.0
0.3596901608382971 0.15831892937666597 0.0
0.6749182403844564 0.45044463002358964 0.0
0.5847818364541563 0.6777794325406926 0.0
0.44817052646934824 0.32132982301157176 0.0
0.33004212190677573 0.5575217388227733 0.0
0.8833902885629463 0.5328400412447741 0.0
0.532849443805336 0.11444895252592195 0.0
0.46823358449865177 0.887228994163564 0.0
0.11458967781067632 0.47028711853330346 0.0
0.8988795950580064 0.7437619241659792 0.0
0.7433537203767809 0.10417070461624732 0.0
0.2599001976905109 0.8982467565762972 0.0
0.10457308336313663 0.2599074812998333 0.0
0.7463254982956847 0.8849052278710148 0.0
0.12005313973172282 0.7457163960177303 0.0
0.8825587662927303 0.25798425744259734 0.0
0.25720165326968486 0.12006218587081237 0.0
0.7428166909652993 0.6055260265072999 0.0
0.6103012322825511 0.2528031920254137 0.0
0.3958822976661805 0.7497003932650953 0.0
0.2555193922227355 0.3962598981713612 0.0
0.5246824667181162 0.5936986327203561 0.0
0.9002880762972708 0.8871038208170549 0.0
0.8857805271613144 0.10210943888834446 0.0
0.11733673423296478 0.9007137832559619 0.0
0.10203230718927178 0.11705019157852896 0.0
0.76290033440466 0.3941362471427874 0.0
0.23970581850963815 0.6118376888782531 0.0
0.3921668660053065 0.2375187716437072 0.0
0.8989346876049011 0.4387475084640003 0.0
0.43831000417103205 0.10379540701353099 0.0
0.5663675666598363 0.8959345554434678 0.0
0.10431129514825575 0.5653101908445939 0.0
0.7896921009798906 0.7441378662864587 0.0
0.7437278219887259 0.21293130867730156 0.0
0.25875590311681124 0.790589115182297 0.0
0.21310389060284055 0.2584007211532164 0.0
0.7220153267481559 0.8020540727235642 0.0
0.7954877883525672 0.28477913806920074 0.0
0.20695658153993202 0.7190856401070995 0.0
0.28851676944129934 0.20279946742532878 0.0
0.5952127252216441 0.49650288365314504 0.0
0.4922970913455441 0.4133566493795977 0.0
0.4268128781786262 0.5478362165470835 0.0
0.6335627459767164 0.7597414501380397 0.0
0.6532016429160209 0.3563104444037257 0.0
0.4971847822014772 0.6941388448610535 0.0
0.3553037625888413 0.6439521898769167 0.0
0.3510418774574123 0.34874742816468474 0.0
0.9175271241682286 0.8170858478645497 0.0
0.8168385372326816 0.08499997709883263 0.0
0.18642657874954707 0.9181111631542672 0.0
0.08500145857307549 0.18663132165218319 0.0
0.8293275263874436 0.9116361007506012 0.0
0.09279113466104288 0.8298155762290415 0.0
0.910549595644399 0.1736759221518616 0.0
0.17313918883934967 0.09236547083282738 0.0
0.6994391622188817 0.5200870146519658 0.0
0.6501923814013525 0.6498113448670115 0.0
0.5142339635723754 0.3047666086707844 0.0
0.3016006246355724 0.4854124257773974 0.0
0.9190816169628805 0.6093903700366858 0.0
0.614451458657286 0.08702931432178004 0.0
0.39719367644057146 0.9217891691074709 0.0
0.08453885991980595 0.3886982903418354 0.0
0.6654766521442813 0.9205675763789969 0.0
0.0827813853845016 0.6636199714603815 0.0
0.920357994449274 0.33964303208311647 0.0
0.3396742800906637 0.08264006986336687 0.0
0.8226499157081285 0.4382592799076589 0.0
0.5681616061685649 0.8178005109154969 0.0
0.43682093668731575 0.17847281802878917 0.0
0.17971940168093573 0.5664112630843252 0.0
0.4349689473143682 0.4597109828104455 0.0
0.8202607732323223 0.571501030154429 0.0
0.5696994279072872 0.18296080860590505 0.0
0.4317690428702882 0.8200266535712553 0.0
0.1824559986714188 0.4328954644497224 0.0
0.7729021335329732 0.669450098831386 0.0
0.669604833591964 0.22722832957425868 0.0
0.33276818612319214 0.7773280761895813 0.0
0.22751518525333733 0.33291928313581076 0.0
0.9302588986557454 0.6859841912367917 0.0
0.6861876272014229 0.07356053010708175 0.0
0.314306935495354 0.9279201013658009 0.0
0.07520303725730314 0.31347321584748467 0.0
0.5623946254337664 0.741677813761325 0.0
0.6032680237385417 0.4213041915728403 0.0
0.37681529428945454 0.5001325868153335 0.0
0.7353867597398356 0.46062699028413884 0.0
0.4569715209899161 0.2638082365498968 0.0
0.268304776172625 0.5437582299859012 0.0
0.5885585898813589 0.6156287443074681 0.0
0.4193102148602403 0.3880955697679885 0.0
0.5733212039241735 0.5436168096965995 0.0
0.54961207407292 0.4501681184450779 0.0
0.9353245454689618 0.49825118975328514 0.0
0.4993787090744973 0.06782206012763337 0.0
0.5031822901540265 0.9332769618043129 0.0
0.06803984707204902 0.5045005823814547 0.0
0.846540916316869 0.500070695855094 0.0
0.4986629636368322 0.1551402656584623 0.0
0.5001609932025814 0.8432554270780513 0.0
0.15579667327746033 0.5042979242268247 0.0
0.8458401058508226 0.6992460638613991 0.0
0.6992189994193101 0.1571171848613647 0.0
0.3020793430484598 0.8454238504321874 0.0
0.15731163508506846 0.30290608214714 0.0
0.7727034090293674 0.8390327898961789 0.0
0.8364964279576629 0.23009387259853048 0.0
0.1662430087921963 0.7731250886559836 0.0
0.22923770658502443 0.16604522020775897 0.0
0.7630070582648404 0.32866095702172765 0.0
0.23885578855519854 0.6756569072610038 0.0
0.3271362773642762 0.23888186865514827 0.0
0.6404025302920532 0.30314352490838425 0.0
[...]
POINT_DATA 2209
SCALARS Psi double
LOOKUP_TABLE default
0.0
0.0
0.0
0.0
0.0
0.0
0.0
0.0
0.0
0.0
0.0
0.0
0.0
0.0
0.0
0.0
0.0
0.0
0.0
0.0
0.0
0.0
0.0
0.0
0.0
0.0
0.0
0.0
0.0
0.0
0.0
0.0
0.0
0.0
0.0
0.0
0.0
0.0
0.0
0.0
0.0
0.0
0.0
0.0
0.0
0.0
0.0
0.0
0.0
0.0
0.0
0.0
0.0
0.0
0.0
0.0
0.0
0.0
0.0
0.0
0.0
0.0
0.0
0.0
0.0
0.0
0.0
0.0
0.0
0.0
0.0
0.0
0.0
0.0
0.0
0.0
0.0
0.0
0.0
0.0
0.0
0.0
0.0
0.0
0.0
0.0
0.0
0.0
0.0
0.0
0.0
0.0
0.0
0.0
0.0
0.0
0.0
0.0
0.0
0.0
0.0
0.0
0.0
0.0
0.0
0.0
0.0
0.0
0.0
0.0
0.0
0.0
0.0
0.0
0.0
0.0
0.0
0.0
0.0
0.0
0.0
0.0
0.0
0.0
0.0
0.0
0.0
0.0
0.0
0.0
0.0
0.0
0.0
0.0
0.0
0.0
0.0
0.0
0.0
0.0
0.0
0.0
0.0
0.0
0.0
0.0
0.0
0.0
0.0
0.0
0.0
0.0
0.0
0.0
0.0
0.0
0.0
0.0
0.0
0.0
-0.05211005823343291
-0.08571818845089717
-0.012036686069081091
-0.05316511087170545
-0.011744664085632161
-0.031112858418032636
-0.010449633894816835
-0.0882505790046544
-0.0208859113935111
-0.06710970284616645
-0.0014816208811966635
-0.03763011831298629
-0.001996534151928428
-0.06490916660656328
-0.027513136468773822
-0.07001724854602104
-0.029630948204495525
-0.03710066058881618
-0.004222254142905813
-0.06741428896675622
-0.006375852415387323
-0.08910157425054498
-0.006451581922992747
-0.019614451187268088
-0.004511283215774026
-0.03577565080845426
-0.08888078244874964
-0.02025073912473118
-0.04232110015964507
-0.012198298882765834
-0.0029343464551931544
-0.07050512381697356
-0.006367852446957719
-0.03014161983982667
-0.0011181848753483144
-0.05056142729743142
-0.0016900744972316358
-0.07271814414086993
-0.016907969658340526
-0.0015051032842555395
-0.001724797183383744
-0.05938975620090589
-0.011856959335646759
-0.07426706063756341
-0.01651063905493884
-0.0711099829743324
-0.04090955926340931
-0.0001330007997596365
-0.02805337778568307
-0.00028864208484921037
-0.017094712579803613
-0.03271277674660296
-0.010435667614787375
-0.004854696011060341
-0.0023825656067440865
-0.07167021138516422
-0.007608253686451511
-0.07414280071810284
-0.00472890704109395
-0.051398857370345184
-0.005661671664155686
-0.09035589839427638
-0.005979244538837553
-0.034667068663742154
-0.005530167354807991
-0.051164180149916236
-0.03470452010689891
-0.05378512653781302
-0.0965620371758338
-0.02195021418787122
-0.08435918736575622
-0.05730163174477055
-0.019280103245278457
-0.02874782261634847
-0.0003348625864405349
-0.03976767776997722
-0.0005731589268447229
-0.05461908021232046
-0.015604735042705521
-0.0002878006564492371
-0.0005107920482413151
-0.04742363027506203
-0.08297293525246745
-0.019035898774463753
-0.029856373312052313
-0.010044750215944174
-0.0014855037220351433
-0.05445287899574106
-0.0024994753298148062
-0.06048909096975298
-0.00693373980460654
-0.0013551346433556468
-0.001225920885861172
-0.014112748074084828
-0.09163511036916284
-0.0065752718092529725
-0.018859782714942066
-0.039735157815942425
-0.0323985759558227
-0.006822404504501224
-0.07926440910585911
-0.011798324109327452
-0.06613311817064875
-0.008010569124039529
-0.0647757900825208
-0.010100319066153513
-0.012336529557277995
-0.0008095598544474918
-0.04757781237448541
-0.0013198237643177616
-0.09402599372808917
-0.035360133107194755
-0.040663398612747384
-0.030134075238196986
-0.01403987467335886
-0.03128015111518846
-0.07779047019218124
-0.027896583701319998
-0.06207329667614565
-0.042146894626219865
-0.0030800785587087984
-0.0011197025054064905
-0.051835446209118306
-0.0028687007016868354
-0.016387331786448016
-0.005273488167182371
-0.08316082322526032
-0.012166976345740129
-0.0467137771639724
-0.00334670875167183
-0.06037041610116293
-0.0046937589229373265
-0.07984274697007573
-0.002327187660035909
-0.029489659380879267
-0.0026982331714652257
-0.010849113946160178
-0.03804645701778529
-0.008778794190680658
-0.01597823219203136
-0.06548290503443151
-0.017393001783784258
-0.05620265534615862
-0.001599335447633608
-0.004706329107520219
-0.0011298164560123837
-0.05635830745733189
-0.07850745417707035
-0.01769782738175942
-1.603449767972923e-05
-0.02441383433282338
7.631582221593449e-06
-0.06235715746056822
-0.0038775332047898364
-0.0008648042774451404
-0.04695876177873178
-0.0018332829642118353
-0.015088348376723022
-0.00034397245080254124
-0.038960933625613016
-0.0005502062517455131
-0.046692316899562714
-0.006580727845843756
-0.0002878495551462101
-0.0004529444587997987
-0.05711317434052259
-0.002003055921613332
-0.04858514732667115
-0.0027153072959579206
-0.0858035849679246
-0.004082161332076854
-0.021480232979153534
-0.0036793223484290253
-0.07625735701196151
-0.05228846290370323
-0.0268352763045211
-0.044811947185557165
-0.01867345852935067
-0.0924973299483078
-0.024178258333094983
-0.06718958835236465
-0.012730832336411825
-0.020794998081410398
-0.01957587636815242
-5.293888471679361e-05
-0.030256861568075336
-0.00013377159738447582
-0.04055493521163803
-0.011149169746526091
-6.114270082868125e-05
-0.0001650516209421344
-0.08227602830014616
-0.02484218527773105
-0.016592216551739234
-0.04396932695038708
-0.08228323778549106
-0.02259059466477612
-0.0038484129623339047
-0.07180478870791875
-0.0067625459480285454
-0.08494939487785078
-0.007263797860275261
-0.0481496434538221
-0.007552798919306086
-0.09411954557746899
-0.04976519868006434
-0.008075675688187034
-0.07291092829429771
-0.011650510308987073
-0.04864699368663574
-0.005390107855170317
-0.00046837464073911256
-0.000597584836448359
-0.04952564598462002
-0.00047173169010387316
-0.035127813210999476
-0.0007827070844571224
-0.013482032086606213
-0.0076476523981812445
-0.024872153610841025
-0.0760075096903825
-0.07562535986033173
-0.0029325700373023815
-0.04205900314612072
-0.0035773051990322952
-0.01694530502450052
-0.04644630010864042
-0.013376824196918512
-0.004657227462852053
-0.0788298837303545
-0.00292661600779415
-0.011738207726303674
-0.09491039632792782
-0.06797939347290725
-0.09355697137556436
-0.048666578398244814
-0.0643174824909175
-0.0078101082842660366
-0.029530811121623955
-0.006088316089506753
-0.033166526750304424
-0.020822196490327363
-0.022882496338581818
-0.001193211390979091
-0.00068718211421813
-0.0441625664943808
-0.002333585939264339
-0.06958275960446693
-0.025373876938023718
-0.0010749118883626482
-0.0014534496679771101
-0.008085880405814407
-0.002912160470245849
-0.07387828974781518
-0.007541513141828115
-0.02136084247786727
-0.010381679945135742
-0.02725818383972901
-0.04144385715890859
-0.05444991487297313
-0.029070073911590805
-0.002359294672115311
-0.06076680230113153
-0.0035906125446546
-0.0056884584300843045
-0.00022893741504068107
-0.029385745255122046
-0.0003149556885288071
-0.0030126772451889924
-0.0003294346000846924
-0.03465366703087476
-0.0006887524874240511
-0.02711111669324309
-0.08969431946791386
-0.031105824615116382
-0.04249623902672266
-0.04832277650189974
-0.09464375895564636
-0.04772729195384453
-0.0010068928354421422
-0.04432898602287929
-0.001490203307339022
-0.07859042575241905
-0.008585228038538764
-0.0566271385169772
-0.009545905217851612
-0.05346829359178404
-0.0003238793840536847
-0.025575340295213782
-0.0005728999622616997
-0.05861915384715723
-0.021533022484941843
-0.08920065168067355
-0.062456870750265736
-0.03255493758156984
-0.03711490074357594
-0.09222052518128003
-0.028049070133862767
-0.033715669214372176
-0.059619083890387836
-0.036931949784901004
-0.038651109817911325
-0.01439533437121733
-0.017805009951467596
-0.027215648492390464
-0.07595543156747876
-0.08504362839102295
-0.009589130812745948
-8.883149524107026e-05
-0.02951469846616531
-0.00017110354773517883
-0.037929928845221436
-0.005462522670568614
-9.572934593168308e-05
-0.00020389461336570367
-0.036349314057194756
-0.04652734574589675
-0.049304094794109986
-0.010334184407019338
-0.015994411588040804
-0.021223508326634416
-0.005328972781006405
-0.08377873752206075
-0.010728879368436807
-0.0790925534040064
-0.014291856601670715
-0.003297182911399155
-0.00269644788918369
-0.03528114493641574
-0.001937557674610791
-0.0003610443062231805
-0.00036571445962462975
-0.0026339771093571336
-0.0005222852915712056
-0.03347670241527304
-0.000994077452154301
-0.010852637853297199
-0.0045712556770531616
-0.08434144969934419
-0.01265835714740692
-0.025047021330798207
-0.008790752847062861
-0.08892282815081828
-0.004863161987424043
-0.01694692328178269
-0.011567359954920501
-0.0690910842503337
-0.014508689265088305
-0.06447817051048221
-0.015947266386730757
-0.000752519141083241
-0.0010375815666953424
-0.07826687824438985
-0.03102940753781787
-0.0006567890021329509
-0.04501293255641804
-0.0010243527628658016
-0.024138866251923057
-0.0028309246753660325
-0.065382772741571
-0.004520838243574023
-0.014117101694015881
-4.150395781778576e-07
-0.023028747027047724
-2.8531275097977898e-05
-0.007273891412176194
-0.02583351457377283
-2.253582213993894e-05
3.4820628165512417e-06
-0.07830599107938434
-0.05388116684904219
-0.0054251238326428475
-0.06468452971534483
-0.007368082338611543
-0.06974613767918074
-0.011592848988787948
-0.0016888736575680406
-0.0016718799818126024
-0.08524254014217858
-0.016654181285967004
-0.0554863901705703
-0.01544361899781662
-0.00961754622638
-0.017228400916973106
-0.03561643800674997
-0.02344713322739656
-0.020454356113697364
-0.007747352932091045
-0.018446579249002143
-0.009364103911445786
-0.001868340708015551
-0.06143541248997459
-0.0036958966741681867
-0.07803929279698991
-0.04314964925380057
-0.0574244206668094
-0.06934703949900402
-0.06753433911109218
-0.01568783889763815
-0.019382420798626124
-0.03427914687532221
-0.005245118979013733
-0.07397568213231384
-0.00842894381843568
-0.01193599698865241
-0.008137559973485331
-0.03118242949032719
-0.09623249037737988
-0.042552636805894585
-0.0685786163142447
-0.0059494443621576475
-0.05845243061811339
-0.0073327353027738545
-0.0012437804765426685
-0.0003942473620771172
-0.03258949913721946
-0.0009706412994160329
-0.07094748686227735
-0.06883946824328392
-0.07350621216631775
-0.03412031627190337
-0.03023128002871649
-0.01656158683015251
-0.03855872653952971
-0.08388607971408132
-0.08359021440287945
-0.08390921203173306
-0.0031717740571171474
-0.02694846922070536
-0.0032762124873402998
-0.08506423962120334
-0.004180983909866153
-0.03958356318748297
-0.004578005528686117
-0.049426652383943274
-0.0022824458903098043
-0.05399659025643584
-0.0031782292660162293
-0.022484453919505282
-0.0011291561229225813
-0.05208725257966605
-0.0018157393029464449
-0.028413593328639117
-0.011730593751995063
-0.02587106795595022
-0.09087649903058748
-0.012204287304364991
-0.06192682681354024
-0.013481126750206775
-0.042803838044857004
-0.02253745516189331
-0.003284030253270352
-0.0002215384929839591
-0.026052363342720607
-0.0003165533809716133
-0.03233650777431559
-0.03267766173021951
-0.06389837728963589
-0.014155981467346326
-0.0013799899836635196
-0.05388043390056159
-0.0021653658377940644
-0.009853302465586095
-0.04561363560300812
-0.009170472874320256
-0.03349572864690624
-0.0001873862462312299
-0.034304356187160004
-0.0003623282901766032
-0.03269374930893887
-0.002008491535446876
-0.00022252389200388476
-0.0002814370854011964
-0.0007814371952220286
-0.00034982309026682486
-0.030766978272297876
-0.0009860427119491354
-0.0054229389436551085
-0.0013886014009121615
-0.05605226236607288
-0.003181747120419668
-0.010856226680363497
3.1829724180441253e-06
-0.01250037489357783
4.316121007388183e-06
-0.07670513345037216
-0.023961471713403504
-0.013306169047653922
-0.03528460069725635
-0.06054729386367672
-0.0006617323153330723
-0.02959254459365835
-0.0010225445219855835
-0.03022010780278132
-0.002430976961105855
-0.00010154887277359519
-0.0001832331637026474
-0.007558748141624302
-0.015609324759336289
-0.025129393771031888
-0.09253399900824691
-0.04582439956141376
-0.062062864894575846
-0.006593117434757878
-0.001789511074812667
-0.0013805025137762117
-0.08921682121425238
-0.0960474300570349
-0.07611629740231433
-0.0238007654888129
-0.0017152861435948562
-0.0020438061492356473
-0.057546845934625855
-0.0006874590582449403
-0.008914909894407363
-0.0008683010948578281
-0.08319645702850349
-0.08111122084291131
-0.017928708562355386
-0.0005478859785466371
-0.04350542876984421
-0.0008555138532339304
-0.04819250214003932
-0.0027976346014672786
-0.0013175371448650142
-0.05726279730655649
-0.004012145435447241
-0.03259974183944907
-0.001350532821749343
-0.0004961826809404109
-0.0003523760835744428
-0.07769917315958377
-0.057941997468606385
-0.07591871160923327
-0.039283048847224986
-0.07912893945254494
-0.006682482279404001
-0.0803310828929239
-0.003387549396088695
-0.01116726210812497
-0.06641577455964214
-0.03952616240520107
-0.01701120880682879
-0.025778135115623216
-0.09511862811237526
-0.014262614110998884
-0.019615841641737117
-0.009169043843813621
-3.5181365027982525e-05
-1.917483525382263e-05
-7.064912924850944e-05
-0.027941560387425023
-0.004094060536449884
-0.025745411408691316
-8.544018778192469e-05
-0.020857946492224538
-0.049197086111205046
-0.01612210180467876
-0.055557905049289306
-0.056254844402333845
-0.01522398714691112
-0.03787712296979205
-0.010724578441271409
-0.0727646648086695
-0.0486859654409622
-0.07362622875457839
-0.0019294467366377614
-0.03554046640378471
-0.0024464029446718332
-0.09009950010531059
-0.06769148350206503
-0.0029347470013780788
-0.06557068858730164
-0.001935040803479874
-0.04816413313551755
-0.04305814749797512
-0.0037309149380550157
-0.0025512273994516845
-0.008604603770753413
-0.023971275657599572
-0.0058188966970374135
-0.08605638493199215
-0.002809936217355629
-0.06446797963524852
-0.001673372057833304
-0.006193980989234868
-0.02749819962413272
-9.377825053622666e-06
-0.023778851190958725
-6.491702734999036e-05
-0.003298142282779622
-8.875758829645912e-05
-0.02193907987049857
-0.00014138214963389112
-0.0192126497376926
-0.019358369616113598
-0.06324101046074018
-0.005006583570540145
-7.121876837982263e-05
-0.02345374986648153
-0.0001286523745386647
-0.028535734914544895
-0.0026950492318333044
-5.953246221819166e-05
-0.00012954362817772786
-0.05892647059829939
-0.043587083043832825
-0.0013572569752835126
-0.04946053987932736
-0.0019640562969668804
-0.012612595731239575
-0.0037898501973064962
-0.07756765848643679
-0.008807596020953283
-0.06444566337778472
-0.003910516560570444
-0.054559624887848886
-0.0049943259339083204
-0.008484420991896531
-0.03467574882249153
-0.007393877428994965
-0.04911782092887405
-0.08859522877012409
-0.08809110486532686
-0.019840277450267146
-0.03955671964024152
-0.013102224580647385
-0.04028581291499467
-0.017377051409056272
-4.984137133957221e-05
-0.00015132596188528847
-0.03933674048786681
-0.0034649534727844307
-0.06360147437322282
-0.005060180158116617
-0.08098168789087044
-0.0046135950112966805
-0.045385310495970735
-0.005218638394687607
-0.02829381258558943
-0.07683642238089362
-0.05626194731679562
-0.029164582900254334
-0.028116427670064965
-0.09033094178375455
-0.00045513084983530097
-0.0001157808555151042
-0.019089437463130483
-0.000250440872391712
-0.050587549407952875
-0.08683865254064733
-0.02501060173811207
-0.04586326486362547
-0.028919442450387706
-0.005533977594090453
6.301366043323136e-07
-0.008206112190027513
-0.018393136100074058
-0.016418387489410432
4.623439938772579e-06
6.525632703147286e-06
1.1631099642477437e-06
-0.0626690729358904
-0.004863972183612479
-0.005268956780253421
-0.026500341782089515
-0.021058129829080317
-0.0046320875114675
-0.004210725877459127
-0.09456572322947417
-0.04929359296909776
-0.013712857764366867
-0.04625646144790576
-0.011571797218220695
-0.036898406246619345
-0.09213775806713635
-0.041075600754291015
-0.002246399125528367
-0.0568450197424494
-0.003242691730801551
-0.08738191162719476
-0.010144976973059201
-0.07223103506964927
-0.013645914284440858
-0.09164143961172198
-0.047858323321278616
-0.006046592701208293
-0.0691804812524195
-0.00867606941035692
-0.04819679537663615
-0.015451851734165424
-0.000146575210570311
-0.0003095484627243857
-0.07991818504084156
-0.02116542846156909
-0.00240232885679592
-0.0025362331220621717
-0.06985300424349476
-0.028362342162818237
-0.058633293215240245
-0.09297830053030456
-0.02127641528031423
-0.012680546795658856
-0.022833825758860875
-0.07007863925461191
-0.038484695101064365
-0.016423863489853863
-0.009350542992640766
-0.028848361557380027
-0.0067871249075109824
-0.03937911922331236
-0.006513883617571278
-0.018588791099642694
-0.004001875783383901
-0.007783417029644795
-0.07085393705811037
-0.0846419191455279
-0.03263568166266144
-0.003501908962266528
-0.003729193886182201
-0.019501048230241378
-0.0002529039689876811
-0.037978679541643884
-0.00043519896658647793
-0.048568190250636335
-0.008888518535490605
-0.0002442814185318962
-0.00041838182225611894
-0.04819946132678228
-0.02201762458651035
-0.0660833857254244
-0.015507783670916512
-0.0058515937535040434
-0.0146477805677947
-0.02730001562667834
-0.0010203214225006658
-0.00022867475883658244
-0.0002147360102344555
-0.08733142120133554
-0.017693066680042596
-0.03203313039870818
-8.461039340702857e-05
-0.0001820937171232802
-0.077132965859614
-0.006065782250533239
-0.052803125185380134
-0.006961343684514844
-0.05639877420439839
-0.028930142933186454
-0.003977254469159603
-0.07070865722464557
-0.006452252665062984
-0.08134422125637321
-0.004320032664886172
-0.014095835075847784
-0.003097662288978986
-0.09521912548958145
-0.04194402271388451
-0.093086330485368
-0.059927526270700054
-0.00048424997104113733
-0.021733241463983706
-0.0007774379758198972
-0.018812781084697906
-0.007088251683886958
-0.052604179239291594
-0.009285664845436232
-7.102088673032317e-06
-0.023341081423648467
-3.4839603326151824e-05
-0.02259989131770596
-0.003810170981775157
8.474364351793233e-07
-2.2594768325553876e-05
-0.08503367075918042
-0.015131428726078954
-0.007615093741990039
-0.02241570958812671
-0.058210396827924706
-0.0009009401455862527
-0.03711907484761744
-0.0013354515812093678
-0.025506590067172086
-0.001054554288522035
-0.002090224934044784
-0.05869114214368668
-0.05212418012903623
-0.009388427517408886
-0.05087987704919491
-0.009498276024059522
-0.000910862051783246
-0.00013911329858802492
-0.022165514899090907
-0.0002688955828429281
-0.08165111708374867
-0.07326746551424813
-0.07675627834070907
-0.01789192187776549
-0.0025733102274959115
-0.06535247911304289
-0.004406334908463315
-0.05850095217969665
-0.0009917138077901472
-0.007175001568299756
-0.0010309316874130513
-0.03134665840808129
-0.00010190394095322346
-0.03145389494395416
-0.00023167530625970716
-0.04342926496925291
-0.03926028043724726
-0.0004322549229573125
-0.03917949733818347
-0.0007245603628602931
-0.09552566078783195
-0.026959920828320365
-0.005155860969048198
-0.009109250773786581
-0.04877122836127867
-0.00027814442655868033
-0.029078178756859946
-0.0005118028498210026
-0.009340792108907496
-0.00569274748368292
-0.02101757745430086
-0.02857184570830882
-0.013910885263812173
-0.0006818710592305013
-0.04738273595170468
-0.0012495170220412155
-0.017128207938755594
-0.0006782790395126737
-3.73916559906902e-05
-6.961739342666337e-05
-0.00731609925862365
-0.013888213956630983
-0.05047090278452264
-0.015745911981546425
-0.02659495687664781
-0.07732983401731565
-0.030168049561332597
-0.04172302202798564
-0.00804150823450738
-0.012619707035205251
-0.0011900679498378886
-9.842933811532406e-05
-0.019784453597915932
-0.00016437138337889752
-0.018196860869216066
-0.01929122230311772
-0.008594607765221023
-0.022440083933659767
-0.04748374875907073
-0.02191794820198107
-0.00015061078244358255
-0.0003221523927244905
-0.023648153751969173
-0.09278283674596666
-0.007698528822303512
-0.0024510946991099115
-0.06863821080730866
-0.0058860229400723866
-0.06804228179459641
-0.057694567670187664
-0.025785020966577456
-0.07667320011198922
-0.013873395531239719
-0.05755034821642896
-0.013869861460155055
-0.008076922063747775
-0.06903624504484909
-0.010877450624268679
-0.0543876556464564
-0.029311350157330097
-0.06296842122379266
-0.00047590272284343804
-0.0001939601515668046
-0.022811710993823595
-0.0005247838634458503
-0.011691938150443127
-0.004239015900013135
-0.08222946908918906
-0.010771419017324445
-0.06898832134917182
-0.05060276241510806