# vtk DataFile Version 1.0
2D Simulation C++
ASCII
DATASET UNSTRUCTURED_GRID
FIELD FieldData 1
NODES 1 2 int
2209 4256

POINTS 2209 double
0.0 0.0 0.0
0.0 1.0 0.0
1.0 1.0 0.0
1.0 0.0 0.0
0.0 0.02500000037252903 0.0
0.0 0.05000000074505806 0.0
0.0 0.07500000298023224 0.0
0.0 0.10000000149011612 0.0
0.0 0.125 0.0
0.0 0.15000000596046448 0.0
0.0 0.17499999701976776 0.0
0.0 0.20000000298023224 0.0
0.0 0.22499999403953552 0.0
0.0 0.25 0.0
0.0 0.2750000059604645 0.0
0.0 0.30000001192092896 0.0
0.0 0.32499998807907104 0.0
0.0 0.3499999940395355 0.0
0.0 0.375 0.0
0.0 0.4000000059604645 0.0
0.0 0.42500001192092896 0.0
0.0 0.44999998807907104 0.0
0.0 0.4749999940395355 0.0
0.0 0.5 0.0
0.0 0.5249999761581421 0.0
0.0 0.550000011920929 0.0
0.0 0.574999988079071 0.0
0.0 0.6000000238418579 0.0
0.0 0.625 0.0
0.0 0.6499999761581421 0.0
0.0 0.675000011920929 0.0
0.0 0.699999988079071 0.0
0.0 0.7250000238418579 0.0
0.0 0.75 0.0
0.0 0.7749999761581421 0.0
0.0 0.800000011920929 0.0
0.0 0.824999988079071 0.0
0.0 0.8500000238418579 0.0
0.0 0.875 0.0
0.0 0.8999999761581421 0.0
0.0 0.925000011920929 0.0
0.0 0.949999988079071 0.0
0.0 0.9750000238418579 0.0
0.02500000037252903 1.0 0.0
0.05000000074505806 1.0 0.0
0.07500000298023224 1.0 0.0
0.10000000149011612 1.0 0.0
0.125 1.0 0.0
0.15000000596046448 1.0 0.0
0.17499999701976776 1.0 0.0
0.20000000298023224 1.0 0.0
0.22499999403953552 1.0 0.0
0.25 1.0 0.0
0.2750000059604645 1.0 0.0
0.30000001192092896 1.0 0.0
0.32499998807907104 1.0 0.0
0.3499999940395355 1.0 0.0
0.375 1.0 0.0
0.4000000059604645 1.0 0.0
0.42500001192092896 1.0 0.0
0.44999998807907104 1.0 0.0
0.4749999940395355 1.0 0.0
0.5 1.0 0.0
0.5249999761581421 1.0 0.0
0.550000011920929 1.0 0.0
0.574999988079071 1.0 0.0
0.6000000238418579 1.0 0.0
0.625 1.0 0.0
0.6499999761581421 1.0 0.0
0.675000011920929 1.0 0.0
0.699999988079071 1.0 0.0
0.7250000238418579 1.0 0.0
0.75 1.0 0.0
0.7749999761581421 1.0 0.0
0.800000011920929 1.0 0.0
0.824999988079071 1.0 0.0
0.8500000238418579 1.0 0.0
0.875 1.0 0.0
0.8999999761581421 1.0 0.0
0.925000011920929 1.0 0.0
0.949999988079071 1.0 0.0
0.9750000238418579 1.0 0.0
1.0 0.9750000238418579 0.0
1.0 0.949999988079071 0.0
1.0 0.925000011920929 0.0
1.0 0.8999999761581421 0.0
1.0 0.875 0.0
1.0 0.8500000238418579 0.0
1.0 0.824999988079071 0.0
1.0 0.800000011920929 0.0
1.0 0.7749999761581421 0.0
1.0 0.75 0.0
1.0 0.7250000238418579 0.0
1.0 0.699999988079071 0.0
1.0 0.675000011920929 0.0
1.0 0.6499999761581421 0.0
1.0 0.625 0.0
1.0 0.6000000238418579 0.0
1.0 0.574999988079071 0.0
1.0 0.550000011920929 0.0
1.0 0.5249999761581421 0.0
1.0 0.5 0.0
1.0 0.4749999940395355 0.0
1.0 0.44999998807907104 0.0
1.0 0.42500001192092896 0.0
1.0 0.4000000059604645 0.0
1.0 0.375 0.0
1.0 0.3499999940395355 0.0
1.0 0.32499998807907104 0.0
1.0 0.30000001192092896 0.0
1.0 0.2750000059604645 0.0
1.0 0.25 0.0
1.0 0.22499999403953552 0.0
1.0 0.20000000298023224 0.0
1.0 0.17499999701976776 0.0
1.0 0.15000000596046448 0.0
1.0 0.125 0.0
1.0 0.10000000149011612 0.0
1.0 0.07500000298023224 0.0
1.0 0.05000000074505806 0.0
1.0 0.02500000037252903 0.0
0.9750000238418579 0.0 0.0
0.949999988079071 0.0 0.0
0.925000011920929 0.0 0.0
0.8999999761581421 0.0 0.0
0.875 0.0 0.0
0.8500000238418579 0.0 0.0
0.824999988079071 0.0 0.0
0.800000011920929 0.0 0.0
0.7749999761581421 0.0 0.0
0.75 0.0 0.0
0.7250000238418579 0.0 0.0
0.699999988079071 0.0 0.0
0.675000011920929 0.0 0.0
0.6499999761581421 0.0 0.0
0.625 0.0 0.0
0.6000000238418579 0.0 0.0
0.574999988079071 0.0 0.0
0.550000011920929 0.0 0.0
0.5249999761581421 0.0 0.0
0.5 0.0 0.0
0.4749999940395355 0.0 0.0
0.44999998807907104 0.0 0.0
0.42500001192092896 0.0 0.0
0.4000000059604645 0.0 0.0
0.375 0.0 0.0
0.3499999940395355 0.0 0.0
0.32499998807907104 0.0 0.0
0.30000001192092896 0.0 0.0
0.2750000059604645 0.0 0.0
0.25 0.0 0.0
0.22499999403953552 0.0 0.0
0.20000000298023224 0.0 0.0
0.17499999701976776 0.0 0.0
0.15000000596046448 0.0 0.0
0.125 0.0 0.0
0.10000000149011612 0.0 0.0
0.07500000298023224 0.0 0.0
0.05000000074505806 0.0 0.0
0.02500000037252903 0.0 0.0
0.5055317854696921 0.5029577878717661 0.0
0.7111514990758961 0.7027333246138605 0.0
0.701900166051157 0.2947576792657962 0.0
0.2966543403569227 0.7065206395637619 0.0
0.29470870157145806 0.2959627045972369 0.0
0.7761031570263809 0.5048980449327889 0.0
0.5014331574713649 0.22179800488422677 0.0
0.4915843337225647 0.7776455688866118 0.0
0.2228304668737931 0.49670406933131644 0.0
0.8281266728458805 0.820860263476902 0.0
0.8197032045694561 0.1710201344219046 0.0
0.18041315368710575 0.8290000051041353 0.0
0.17015878637626455 0.1799007793582874 0.0
0.6424213600338039 0.5663295660923149 0.0
0.5633804843647917 0.3666970772540109 0.0
0.4414333696402413 0.6351789248562485 0.0
0.3623155698019875 0.42785034715000636 0.0
0.8448252501491129 0.6432724132150941 0.0
0.6440183515221537 0.1555086001555555 0.0
0.34993806371105185 0.8419492085833455 0.0
0.15542606262883296 0.35501309591770525 0.0
0.6478333111214661 0.8417491072956956 0.0
0.8417763657730138 0.35805926003835337 0.0
0.15779500546111083 0.6430635304287281 0.0
0.35843061860457265 0.15688794765252104 0.0
0.6737137822272204 0.4486948398943543 0.0
0.5831812368600506 0.6763178921716485 0.0
0.4468157114630091 0.3203222230026985 0.0
0.3278700607513121 0.5566651521466042 0.0
0.8823203185058213 0.53076306154851 0.0
0.5312028985619288 0.11295849709014873 0.0
0.46661872674888866 0.8858240746290142 0.0
0.11270084411038514 0.46871656451317867 0.0
0.897305405593809 0.7419607713038113 0.0
0.7413484722229062 0.10193156030925542 0.0
0.25801820115719454 0.8971787536428489 0.0
0.10297873725451623 0.2582811379427285 0.0
0.7447767204275518 0.8833516875387573 0.0
0.11894992587407202 0.7442009784184627 0.0
0.8812210110841309 0.2559038696223097 0.0
0.2553697355583507 0.11864033691472642 0.0
0.741434502734557 0.6039506956778529 0.0
0.608580267194883 0.25077581748755384 0.0
0.39448506387196336 0.7481460263772162 0.0
0.2538028962460198 0.3950857626028013 0.0
0.5228435471297761 0.592195387423455 0.0
0.8982993053571027 0.8857338059929376 0.0
0.8838368453158462 0.10079266500475818 0.0
0.11578009721974188 0.8991077165741446 0.0
0.10017237970269496 0.1153862638862549 0.0
0.7618437399868024 0.3922173222253241 0.0
0.23837974506902868 0.61055725751446 0.0
0.390695356594311 0.2356783025877276 0.0
0.8973539635052287 0.43686746554831063 0.0
0.43631288329474904 0.10234200040343228 0.0
0.5648883025006214 0.894570829609835 0.0
0.10263647038223711 0.5634245792649754 0.0
0.7881167235428066 0.7421731524027031 0.0
0.7421959929443388 0.21116260959376743 0.0
0.256813698274852 0.7891253787177361 0.0
0.2116127439545793 0.25704141268352027 0.0
0.7205360460026443 0.8006049824646253 0.0
0.7939100075553209 0.28303109339075977 0.0
0.20596762986905023 0.7179718582882285 0.0
0.28714021883482616 0.20175906379670716 0.0
0.5936632393045372 0.49496407927113484 0.0
0.49070484447340823 0.4120109145510189 0.0
0.4247356799508088 0.5461798779751885 0.0
0.6318835065843263 0.7580651489793543 0.0
0.6517010273656928 0.35446627644458284 0.0
0.49549742243661615 0.6926560338944366 0.0
0.3534910078700578 0.643341352883383 0.0
0.34984167452946424 0.34756527373190277 0.0
0.9159379080261875 0.8152560351078194 0.0
0.8147250813514614 0.08421846545615445 0.0
0.18483787884479053 0.9161874008464275 0.0
0.0832892101870394 0.18470497569990266 0.0
0.8276099009418175 0.9103769375633337 0.0
0.09066568752793147 0.8285084276559488 0.0
0.9089892563483167 0.17191065647127443 0.0
0.1716769236164816 0.09049064380092055 0.0
0.6981443096483201 0.5180038661920312 0.0
0.6491071187255226 0.6489169367661546 0.0
0.5124695647850039 0.3034159271221909 0.0
0.2995260703435226 0.4844346697353558 0.0
0.9177987320275509 0.607462657696267 0.0
0.6128272571656077 0.08566955698477573 0.0
0.39538507593865585 0.9199387824611953 0.0
0.0827314238854982 0.38705671039270506 0.0
0.6636933222606001 0.9187033225282144 0.0
0.081235915924816 0.6626494183868028 0.0
0.9185043083626914 0.33816639585357333 0.0
0.3379897243175881 0.08066076461141727 0.0
0.8216583188159147 0.43640684480709574 0.0
0.5663362684170532 0.8166614412849514 0.0
0.43523042325483174 0.17712074802697675 0.0
0.1784500440689982 0.5650732876086484 0.0
0.4340889815248698 0.4585374624268347 0.0
0.8185790186281069 0.5693877052213265 0.0
0.568126891157059 0.18118938445992064 0.0
0.42962686248947235 0.8184871051468633 0.0
0.18066894046910095 0.431428289464983 0.0
0.770827451384124 0.6676359356499802 0.0
0.6681171430152657 0.22570414028845487 0.0
0.3308084789707858 0.7759015180596076 0.0
0.22625821403229104 0.33108443284959754 0.0
0.9284079362308885 0.6843942223688764 0.0
0.6844018518102791 0.07204420474099453 0.0
0.3126821119779956 0.9266009874984577 0.0
0.07394736250765732 0.31179747428247423 0.0
0.5608654862046081 0.7404949394879661 0.0
0.6019251840765013 0.41939893279208834 0.0
0.374870966331685 0.49886465986520845 0.0
0.7337468719155216 0.45885441210995365 0.0
0.45559238196223223 0.2623299355291106 0.0
0.26672831956935705 0.5427933470148129 0.0
0.5869547701581174 0.6143711912654262 0.0
0.4181398143536394 0.3864826570178259 0.0
0.5717726716913842 0.542146526368003 0.0
0.5478249823278228 0.4488825889667691 0.0
0.934028516825657 0.4963036108825572 0.0
0.49788937670621863 0.0660407248378655 0.0
0.501622177406479 0.9314955020470739 0.0
0.06598027533762746 0.5025663122109764 0.0
0.8448188027186739 0.49867996503849 0.0
0.49662812994521627 0.15339224279188812 0.0
0.4985941558261715 0.8421317936170579 0.0
0.1542992002964943 0.5027622916280743 0.0
0.8445455615307349 0.6977707427022782 0.0
0.6974770465906145 0.1555976926096934 0.0
0.3005979734368067 0.8443458715411367 0.0
0.15609052617817998 0.30140157989052835 0.0
0.7708588849306984 0.8371782829148003 0.0
0.8350017295479697 0.2281472643153952 0.0
0.16463658176876272 0.7717952866946955 0.0
0.227981721599408 0.164511689630575 0.0
0.7616946904645739 0.3271838077680087 0.0
0.2373387269358425 0.674853203315563 0.0
0.3255251120404826 0.23756877827389783 0.0
0.6391185831542177 0.30113358767554854 0.0
[...]
POINT_DATA 2209
SCALARS Psi double
LOOKUP_TABLE default
0.0
0.0
0.0
0.0
0.0
0.0
0.0
0.0
0.0
0.0
0.0
0.0
0.0
0.0
0.0
0.0
0.0
0.0
0.0
0.0
0.0
0.0
0.0
0.0
0.0
0.0
0.0
0.0
0.0
0.0
0.0
0.0
0.0
0.0
0.0
0.0
0.0
0.0
0.0
0.0
0.0
0.0
0.0
0.0
0.0
0.0
0.0
0.0
0.0
0.0
0.0
0.0
0.0
0.0
0.0
0.0
0.0
0.0
0.0
0.0
0.0
0.0
0.0
0.0
0.0
0.0
0.0
0.0
0.0
0.0
0.0
0.0
0.0
0.0
0.0
0.0
0.0
0.0
0.0
0.0
0.0
0.0
0.0
0.0
0.0
0.0
0.0
0.0
0.0
0.0
0.0
0.0
0.0
0.0
0.0
0.0
0.0
0.0
0.0
0.0
0.0
0.0
0.0
0.0
0.0
0.0
0.0
0.0
0.0
0.0
0.0
0.0
0.0
0.0
0.0
0.0
0.0
0.0
0.0
0.0
0.0
0.0
0.0
0.0
0.0
0.0
0.0
0.0
0.0
0.0
0.0
0.0
0.0
0.0
0.0
0.0
0.0
0.0
0.0
0.0
0.0
0.0
0.0
0.0
0.0
0.0
0.0
0.0
0.0
0.0
0.0
0.0
0.0
0.0
0.0
0.0
0.0
0.0
0.0
0.0
-0.044768035399120484
-0.08016990730571212
-0.0107612890077362
-0.049606650709779695
-0.010234357389415598
-0.027304181921310084
-0.009188236878948278
-0.08371608459034388
-0.018301247466711017
-0.06631729845484263
-0.0015272274387996656
-0.03703849651931373
-0.0017831697385246475
-0.05714412206589643
-0.023491676601820204
-0.0626979369782695
-0.025489213480565133
-0.03441048375721429
-0.0038950984617786353
-0.06595721641212794
-0.00554624810365607
-0.08704252006854893
-0.005861129541112452
-0.01802104851992063
-0.004000853842471217
-0.03077641126212365
-0.08119757141615065
-0.017444014324826784
-0.03723716647378517
-0.010935935441879164
-0.0026602816566366544
-0.06983873411669403
-0.005535109392412514
-0.029164547011874938
-0.0011135926448123709
-0.05052057836269085
-0.001481560193137612
-0.07262653414838668
-0.016251032137564677
-0.0015331407657012447
-0.001548851005185537
-0.05350078644307226
-0.010466528671901565
-0.06984870689979307
-0.014264252857135229
-0.06263972978301204
-0.0413332056742497
-0.0001822446518568157
-0.027840904973493962
-0.000264835617024088
-0.01496110259763793
-0.029548031867439113
-0.009083925072083814
-0.004431578851722549
-0.0021293773362760127
-0.07107401972826435
-0.0067544768177264835
-0.07088657224887385
-0.004465217945248649
-0.04961403382792568
-0.004995520716142607
-0.0876791997776475
-0.005569792491293613
-0.03281041675967846
-0.004905638209262615
-0.043908386156213695
-0.02960281522186323
-0.04677698865164071
-0.09155555552505144
-0.018963364175619588
-0.07726455979615822
-0.05183218954667989
-0.016641958391144962
-0.02863766443476339
-0.00038511127304408527
-0.04002770945774909
-0.0005116635582803981
-0.055278033759590756
-0.0152418586556882
-0.00034821994060145
-0.0004637589979592578
-0.041294044999092686
-0.07539385977541856
-0.016425796620929106
-0.025924119548726678
-0.009303665255761933
-0.001372687977003328
-0.05480480217220423
-0.0021489854845799603
-0.06110052529389022
-0.0063323151527528805
-0.0013367638072720861
-0.0010840166067740435
-0.012435797379998817
-0.08829626583708923
-0.0058149280403569995
-0.01681282594453968
-0.03406676000823048
-0.029032146277183823
-0.006099777411650068
-0.0764802816142068
-0.010265154461149754
-0.061341854676765145
-0.007278411083534768
-0.061861570570303205
-0.008770662913853101
-0.011802033250285776
-0.0007770860594496423
-0.048022473461209414
-0.0011400475234248997
-0.08811393555159386
-0.030081757469021454
-0.03512344938829431
-0.026159121141216494
-0.012202249063450415
-0.027566541675644107
-0.06939593909267823
-0.02386257179717963
-0.05398031465534173
-0.03601575500957778
-0.0028368744654240024
-0.001006162722323612
-0.0524744194683636
-0.0024740699214623007
-0.014577604854248185
-0.00467624117673368
-0.08082712595420093
-0.010684326697191894
-0.04414074156308684
-0.0031779210044128887
-0.059292972555892706
-0.004109691865856625
-0.07877662951981115
-0.002330799154253702
-0.028480163225327974
-0.0024034510466092213
-0.00973646506539031
-0.03530004298071112
-0.007699690712215592
-0.014002304941266856
-0.0606143021229185
-0.015002120293542868
-0.05636337677086223
-0.0015322705855934085
-0.0041941760664088515
-0.001007730409858228
-0.049984162618341876
-0.07247193621188333
-0.017607769585986897
-1.684732671712193e-05
-0.025357479800769873
-1.5708424646525507e-06
-0.05439226306109132
-0.003579561870280139
-0.0007787151122487108
-0.04773043286025492
-0.001568765023105105
-0.014972579050343913
-0.00036870652085779434
-0.03973518425377597
-0.0004900956595880354
-0.04794883322324385
-0.006307932923595926
-0.0003362541243821226
-0.0004102831661341972
-0.055741981664029557
-0.0019851460382636745
-0.047973326962596805
-0.0024051810719832017
-0.08445925303359827
-0.0038610800407851667
-0.020231057337660053
-0.0032751011204622533
-0.06984603731184717
-0.04527319501828874
-0.02291471582013244
-0.03946616500683154
-0.016147216527019115
-0.08620218293492866
-0.020901922647634286
-0.05978690941161734
-0.011144462668493928
-0.01804726231008517
-0.020043819891332432
-7.762566545834277e-05
-0.03075895363912748
-0.0001241416625392232
-0.04154528254071216
-0.01082626738697304
-9.489757300343261e-05
-0.0001551945803625648
-0.07420934851795526
-0.02145115476543406
-0.014414411019222636
-0.03924793987815202
-0.07728795074176363
-0.020466023833911443
-0.0035010402234201105
-0.07054378305165526
-0.005868155565579734
-0.08094338810130779
-0.006675609901580199
-0.04553555623502081
-0.006623224231082567
-0.08980144722313249
-0.04541188224402436
-0.007272506915337063
-0.069938534234198
-0.010142731102777993
-0.04971948982907445
-0.005051699986984327
-0.0005085670218400504
-0.0005395579857174077
-0.049394255180793614
-0.0005470199239800286
-0.035032721186569166
-0.000714322202830298
-0.011942789562449783
-0.006745578440468705
-0.022410490068205467
-0.06804304436887915
-0.07375528319983671
-0.0028744198533113656
-0.04088987348732768
-0.003150900457304001
-0.014782350551437102
-0.04241744180538331
-0.011676554969720346
-0.004292584404674158
-0.07787893282503534
-0.002613062115492945
-0.010622900116569878
-0.09130736321516914
-0.061831797247656875
-0.09055746915784241
-0.041851613218862535
-0.05681532073569842
-0.007121784618004696
-0.02734880986881443
-0.00540781449235566
-0.02826659900121001
-0.017948884224235184
-0.019751802253662742
-0.0011442206674948626
-0.0006199094280318892
-0.04485920901897017
-0.0020794312688584785
-0.06937667619640588
-0.024694233757556704
-0.0011420298058849186
-0.0013088381252059893
-0.007294885250112884
-0.0025983419730748435
-0.07303363282665111
-0.006652134414040438
-0.01858146747072176
-0.009054199096059489
-0.024205179602965823
-0.03549197070596491
-0.04687913815416728
-0.02734465304532559
-0.002240191808079663
-0.060169781623052844
-0.0031180899080503685
-0.005569860669098054
-0.00023508478684948126
-0.030173319857915645
-0.0002780610053540413
-0.002891456324327634
-0.0003117360688164117
-0.03563176670600514
-0.000589495250725113
-0.023176694997446675
-0.08244664350671284
-0.02667196591463617
-0.03644773150971579
-0.04218425383180138
-0.08825844077773591
-0.04691739123063508
-0.001058759142601778
-0.04416317622366346
-0.0013283440881727655
-0.0737772873406062
-0.007766641040851584
-0.05358267231778634
-0.00832252003739924
-0.053808282962462865
-0.00039435481416401125
-0.025253127886114925
-0.0005251640203403139
-0.05145027131528053
-0.018527773912025845
-0.0830354236273872
-0.05421865201919597
-0.028114464042979723
-0.03233290892574427
-0.08775891484900264
-0.02404541805366581
-0.028802444687097528
-0.05194149519955125
-0.03210992711974431
-0.033353618391473154
-0.012445717783776313
-0.015396983583839861
-0.023823498464056438
-0.0678582672043447
-0.07705412751972446
-0.009513114093960577
-0.00010732070548781294
-0.030486589531722768
-0.00015612449008373748
-0.0395202986832004
-0.005279573915608104
-0.00012871911947561968
-0.0001877451415628845
-0.031225011411549063
-0.04157720226507134
-0.043849759128072596
-0.00915627804003061
-0.013860804466127778
-0.01893156317160092
-0.004771517856091412
-0.08073203151442022
-0.009378225183046655
-0.07824482068939687
-0.013248973129951085
-0.003124304819731608
-0.0023823353617325703
-0.03612835651765203
-0.0017911857416202347
-0.0003755416150941794
-0.0003181025853012071
-0.002458821043576104
-0.00048111636610570556
-0.034618980694088204
-0.0008445115193499177
-0.009659140820611213
-0.004052780256872164
-0.08229181115524563
-0.011240341043176207
-0.021532402219078633
-0.007842471572862022
-0.08659371587561426
-0.00433734743352813
-0.01525872957444948
-0.010312567111697713
-0.06491893784245634
-0.012554730876234372
-0.0650457282501622
-0.015461875607173192
-0.0008230942958629844
-0.0009397543452832392
-0.07111386885081865
-0.030501425487042683
-0.0006999231046824669
-0.04515624972072778
-0.0009047423074799996
-0.022136834383443764
-0.0026094009820513417
-0.06465588111062597
-0.003916289379633762
-0.014607694098356038
-1.1660051554116624e-05
-0.0234672560638408
-2.8434432914374368e-05
-0.006907046628577059
-0.026849701447155754
-2.2480794511824903e-05
-6.090982855794707e-06
-0.0745225875637987
-0.050343712430790735
-0.0050219538119419625
-0.06267174086993592
-0.006447844763812989
-0.06971411744402228
-0.010919539150625601
-0.0016720300625816427
-0.0014911014723600431
-0.07862927760062048
-0.014548804217941858
-0.050932790063571765
-0.013424822603045061
-0.008467331185598915
-0.01503398785800758
-0.03144700196289912
-0.020077887112934782
-0.01795420680388673
-0.0068375875539949844
-0.016281467023102385
-0.00851161749945529
-0.0016858455199541503
-0.061374098823229584
-0.0031797442403395013
-0.07606319966224273
-0.037102300202591
-0.0509401005873137
-0.06106644737188321
-0.06167474204694861
-0.013709448707551005
-0.01670252523690024
-0.03118514862067546
-0.004772370996262648
-0.07186776425352584
-0.007325599199399597
-0.010592921155001062
-0.007177332552815335
-0.028488155725691282
-0.09124497085899269
-0.036336081340232716
-0.06481614394998406
-0.005544735686063335
-0.05627885890949331
-0.0064321450011191736
-0.0011624398713798673
-0.00035620572338769773
-0.0339986717057334
-0.0008292315150990382
-0.06244540355191953
-0.06068339474735202
-0.06805731288831159
-0.029857461595523715
-0.02610846955864789
-0.01433176242692655
-0.034061058849945564
-0.07574955758711562
-0.07742602011585878
-0.08267607649429536
-0.0030720253383346194
-0.025923228532508988
-0.0029219263310086797
-0.08258752791546078
-0.003998205011455814
-0.03798802880609372
-0.004046984539809658
-0.04742895152650159
-0.0022212003870695986
-0.053249572218331
-0.0027950512070329886
-0.021591234460326205
-0.001114516713397633
-0.052082504680373405
-0.0015790288907685261
-0.02469840866044134
-0.01024153696940258
-0.022846234881258115
-0.0836853856488239
-0.010847481195274665
-0.057850851524636836
-0.011682885389539908
-0.03685403206975606
-0.01932787177746663
-0.003101368038883915
-0.0002131785820370223
-0.027047977041146004
-0.000275925578346575
-0.02768967288004826
-0.027845704429846085
-0.05743414912794021
-0.013283950479117413
-0.0012845716388707898
-0.053974084457866715
-0.0018694726457915219
-0.008877968575415453
-0.04269297888356968
-0.00802005937800333
-0.033717453701382336
-0.0002359177143665384
-0.0344129196068809
-0.00033031241585265676
-0.03364228378806264
-0.0018689918677414071
-0.000239504391185516
-0.00024943241642929475
-0.0007164311323257648
-0.00032015763480352556
-0.031736618053714076
-0.0008592579006474805
-0.004957942446669538
-0.001247906356311745
-0.056241754393340795
-0.0027284450634772425
-0.010984068923201867
2.079999375253696e-06
-0.013137264112319615
3.449615006484569e-06
-0.07109933048352135
-0.020763443409334073
-0.011585286621518242
-0.031391315831586546
-0.060502642025402356
-0.0007387915006664474
-0.029178464155044076
-0.0009208775348688411
-0.031279288096009265
-0.00232008561166045
-0.00012749534416664856
-0.00016646584432312883
-0.0066988930947246075
-0.01363516053132116
-0.022166849139073498
-0.08699479785822241
-0.03916790577540358
-0.06226856572657715
-0.00595150680381263
-0.001726800186111103
-0.0012248538176734068
-0.0853930873717698
-0.09206954663060886
-0.07559530715396666
-0.023073775474219575
-0.0017487449032489776
-0.0018242095126084076
-0.05834453957550391
-0.0007344602142229602
-0.008449332908194775
-0.0007758056519014627
-0.0792830391877024
-0.07338417224719593
-0.01769833555729278
-0.0005582563906784827
-0.0440126982051855
-0.0007473784616923903
-0.041285304642226454
-0.0025865724882902915
-0.0011690831203601017
-0.05759933823273011
-0.003504430780441148
-0.03349681463003968
-0.0011867351715243867
-0.0004763143167069878
-0.0003148343534362015
-0.0691527459148537
-0.050874630566993935
-0.06863304505302317
-0.033554400312460875
-0.0739461967395976
-0.006039003226359353
-0.07895077076212055
-0.003033443917055207
-0.009965189397430192
-0.05990600047912181
-0.03366284556882996
-0.014740491258870886
-0.02237581944671013
-0.09054036195726498
-0.012511019944967753
-0.016988223315827052
-0.009591672983596327
-4.940319126993048e-05
-3.568524155466864e-05
-6.687059850371501e-05
-0.029163208181821377
-0.003919128047831439
-0.026665191552318283
-7.963680467757683e-05
-0.018049155413643818
-0.04461534534426643
-0.013951721733119302
-0.04809183600175117
-0.048562154469131896
-0.013353006815833237
-0.03458362088218106
-0.009386466042703361
-0.06636939205368353
-0.042183854811199656
-0.07264368052769675
-0.0019459927321876472
-0.034664561861841574
-0.002174736205158386
-0.08546939016066518
-0.06558738032845617
-0.0028635906066176316
-0.0642873772602274
-0.0019497320329113902
-0.04703182541793181
-0.04238691495178158
-0.003297959175947289
-0.0022648981604877893
-0.007798118373838418
-0.02185948382636733
-0.005179732021278176
-0.08102989213537157
-0.0026217388455388167
-0.06424772296884482
-0.0014878877346920433
-0.005488622953085058
-0.028098529364911164
-2.9764310622033457e-05
-0.023684043370965177
-6.14056598408599e-05
-0.0032965327065265348
-9.546600921603925e-05
-0.022863401405799146
-0.000128509307595589
-0.01670575532714569
-0.01670622434426892
-0.05781049669063209
-0.004956849810414174
-8.175544367004933e-05
-0.024507461134363282
-0.00011707435078113152
-0.029909333344244955
-0.0026114695186266355
-8.030322977115881e-05
-0.0001209492539149036
-0.05147851157747534
-0.04226856981395905
-0.001376874380496696
-0.0491953676834856
-0.0017447127540436483
-0.01123581896617896
-0.003402855041178536
-0.0761158800353427
-0.007706606828625022
-0.06155115801365159
-0.003716142494168661
-0.05315431981583975
-0.004396041339537887
-0.007707203508380428
-0.032230298791545244
-0.006490287092128189
-0.04302866713393464
-0.08666084625941761
-0.08625463697560423
-0.017294778004419004
-0.03572575439586858
-0.011420214361302248
-0.041132907017706555
-0.017020601745734658
-8.472710781361133e-05
-0.0001400092093273247
-0.036827496697623065
-0.0032500916966745137
-0.0625427588808645
-0.00441230639128625
-0.07797145740981028
-0.00435385205306675
-0.043651476971052594
-0.004600192873345464
-0.024139891020992996
-0.06855714310266676
-0.04900401841059663
-0.024853068504527724
-0.024238772413489148
-0.08673178600121467
-0.0004091313221399237
-0.00010985006177352144
-0.019720025424287052
-0.0002166541658036112
-0.0446084375744918
-0.08427556708947768
-0.02145043858400714
-0.03925496519563828
-0.02478345132784651
-0.00533903132435542
-6.089378500041475e-07
-0.008606779371713079
-0.019223825952298945
-0.016865249396199922
2.7981425428741265e-06
3.7202252017524666e-06
-4.609981905201643e-07
-0.0556204063038639
-0.00453375327303339
-0.0049033614088471785
-0.02501300971895447
-0.01958446994762994
-0.004119031250635057
-0.0037423600363255065
-0.08840955436538649
-0.04244671879578046
-0.012134033672046336
-0.042690874650664935
-0.01007549625438258
-0.03158916885878521
-0.0866339594365081
-0.039214055823406105
-0.0021767021839319426
-0.05621333219479642
-0.002828143903771375
-0.0797542912802121
-0.009060490965608221
-0.0684833423983081
-0.011837988994512204
-0.0846534140209921
-0.04415861609091024
-0.005527816904792558
-0.06699429411612748
-0.00756539176290994
-0.049094381270493516
-0.01502041903146603
-0.00019688179892740488
-0.0002860719174777718
-0.07922012650599858
-0.02027659981982094
-0.002383643901899263
-0.002253666879533402
-0.06205166134918053
-0.024382207593671955
-0.0524749914532924
-0.08955265333745696
-0.01836769665662646
-0.011064035494336578
-0.01995604453469788
-0.06234289714973623
-0.03367127832155135
-0.014374503694119274
-0.008186735203319265
-0.025951482739839004
-0.0062543288752284106
-0.03714058695326612
-0.0057533875013797645
-0.016662554096542128
-0.003632283973712519
-0.006780467281993554
-0.06604752913398203
-0.08296408002512333
-0.031358456813457024
-0.003384535095036998
-0.0033002373374231694
-0.019314357818548178
-0.0002890717898478003
-0.038521971403093457
-0.00039012113716892796
-0.04992905845149308
-0.008484702906783444
-0.0002991234979728839
-0.00038013576823389385
-0.0416863050134992
-0.018937497231302686
-0.057889117137280365
-0.013647549113741813
-0.005193248113616959
-0.012982871949857614
-0.028213251195358398
-0.0009580499210829598
-0.00022811105816737337
-0.00019112511032195418
-0.08005544682821875
-0.01786453914988543
-0.03270181062595932
-0.0001111821516368953
-0.00016768201285285054
-0.07334606722228784
-0.00562748035881076
-0.05058080068922946
-0.006100405181796994
-0.04866803211825451
-0.026508564523289372
-0.003644899429945498
-0.06930664358129571
-0.005616219947616187
-0.08031358105278338
-0.004022293428374973
-0.012875965021640024
-0.0027636513044490938
-0.09027383746118024
-0.03644441562079051
-0.09021488696648453
-0.06025873245016258
-0.0005553045251536426
-0.021391044192510818
-0.0007035590510591904
-0.016216282375868977
-0.006559106479918736
-0.05303339561267339
-0.00948876891497031
-1.746746622034596e-05
-0.023906084123598806
-3.4324180659103446e-05
-0.02366469912075444
-0.0036198014046354737
-7.2314397852888684e-06
-2.2067045452279233e-05
-0.07738893412911807
-0.013261854507159311
-0.006704303661560142
-0.020048720642051085
-0.057739769187689347
-0.0009764486100577505
-0.03686347684310983
-0.0012024742373254018
-0.021913175326631874
-0.0009683489222251771
-0.0017783896763705826
-0.053427128097353754
-0.04648021770848186
-0.008484124440362222
-0.04780836585286397
-0.008287946512201654
-0.0008552306125385502
-0.00013250712114553457
-0.023233576710707703
-0.0002349141233713662
-0.07546392443743931
-0.07209249441477424
-0.0748206681524067
-0.016413673088458855
-0.0023660677099099675
-0.06477530039551882
-0.0038281880229490855
-0.05919944776861448
-0.0010164499304957924
-0.006704843319199295
-0.0009182655960694576
-0.03179277216071782
-0.00014219402142639825
-0.031507408581997375
-0.00021215964176982016
-0.03848313947064027
-0.03930926101326638
-0.0004954657691457785
-0.03921834004595377
-0.0006523234933753611
-0.09156709862119075
-0.024227572289288086
-0.004664106364614257
-0.007975955381796244
-0.04900074357335809
-0.0003459679734436713
-0.028962835645736713
-0.0004666143129523729
-0.008355165416852897
-0.005056083489963281
-0.0190438717990984
-0.02535479540733989
-0.013357663448030604
-0.0006711412481131291
-0.04767738809698094
-0.001080538653636391
-0.01805357566800382
-0.0006446511189342617
-4.3956021472836676e-05
-6.543296742500274e-05
-0.006500963414277695
-0.012106183640296392
-0.04328183902894072
-0.013655108857756532
-0.023191540626194246
-0.06962094164762041
-0.025743827994685095
-0.037660905498588734
-0.007184802223455041
-0.01098950134011631
-0.001100859266095438
-9.41540711073897e-05
-0.020769529006197662
-0.0001483053697849136
-0.015721567941712193
-0.016840044741432234
-0.007588541949171631
-0.019886557170717307
-0.047952414366429906
-0.021645574180576554
-0.00020192906900271733
-0.00029374818160415915
-0.020362964784511405
-0.08960778800539951
-0.006938923157964722
-0.002194611951494907
-0.06808805442967215
-0.005103258196342191
-0.0596007287986432
-0.053170634047938405
-0.022201591202424802
-0.07374018168477169
-0.012257255508846347
-0.0534257545519588
-0.012033955978973762
-0.007327914969755681
-0.06609961379409059
-0.009474824720173546
-0.04771580718640526
-0.02533508431023558
-0.05692505125073504
-0.00044161160520207846
-0.00017814448061046425
-0.023676592102646273
-0.000452504752725265
-0.010454479323921056
-0.003786488582797205
-0.08036118255232365
-0.009503492629366247