# vtk DataFile Version 1.0
2D Simulation C++
ASCII
DATASET UNSTRUCTURED_GRID
FIELD FieldData 1
NODES 1 2 int
2209 4256

POINTS 2209 double
0.0 0.0 0.0
0.0 1.0 0.0
1.0 1.0 0.0
1.0 0.0 0.0
0.0 0.02500000037252903 0.0
0.0 0.05000000074505806 0.0
0.0 0.07500000298023224 0.0
0.0 0.10000000149011612 0.0
0.0 0.125 0.0
0.0 0.15000000596046448 0.0
0.0 0.17499999701976776 0.0
0.0 0.20000000298023224 0.0
0.0 0.22499999403953552 0.0
0.0 0.25 0.0
0.0 0.2750000059604645 0.0
0.0 0.30000001192092896 0.0
0.0 0.32499998807907104 0.0
0.0 0.3499999940395355 0.0
0.0 0.375 0.0
0.0 0.4000000059604645 0.0
0.0 0.42500001192092896 0.0
0.0 0.44999998807907104 0.0
0.0 0.4749999940395355 0.0
0.0 0.5 0.0
0.0 0.5249999761581421 0.0
0.0 0.550000011920929 0.0
0.0 0.574999988079071 0.0
0.0 0.6000000238418579 0.0
0.0 0.625 0.0
0.0 0.6499999761581421 0.0
0.0 0.675000011920929 0.0
0.0 0.699999988079071 0.0
0.0 0.7250000238418579 0.0
0.0 0.75 0.0
0.0 0.7749999761581421 0.0
0.0 0.800000011920929 0.0
0.0 0.824999988079071 0.0
0.0 0.8500000238418579 0.0
0.0 0.875 0.0
0.0 0.8999999761581421 0.0
0.0 0.925000011920929 0.0
0.0 0.949999988079071 0.0
0.0 0.9750000238418579 0.0
0.02500000037252903 1.0 0.0
0.05000000074505806 1.0 0.0
0.07500000298023224 1.0 0.0
0.10000000149011612 1.0 0.0
0.125 1.0 0.0
0.15000000596046448 1.0 0.0
0.17499999701976776 1.0 0.0
0.20000000298023224 1.0 0.0
0.22499999403953552 1.0 0.0
0.25 1.0 0.0
0.2750000059604645 1.0 0.0
0.30000001192092896 1.0 0.0
0.32499998807907104 1.0 0.0
0.3499999940395355 1.0 0.0
0.375 1.0 0.0
0.4000000059604645 1.0 0.0
0.42500001192092896 1.0 0.0
0.44999998807907104 1.0 0.0
0.4749999940395355 1.0 0.0
0.5 1.0 0.0
0.5249999761581421 1.0 0.0
0.550000011920929 1.0 0.0
0.574999988079071 1.0 0.0
0.6000000238418579 1.0 0.0
0.625 1.0 0.0
0.6499999761581421 1.0 0.0
0.675000011920929 1.0 0.0
0.699999988079071 1.0 0.0
0.7250000238418579 1.0 0.0
0.75 1.0 0.0
0.7749999761581421 1.0 0.0
0.800000011920929 1.0 0.0
0.824999988079071 1.0 0.0
0.8500000238418579 1.0 0.0
0.875 1.0 0.0
0.8999999761581421 1.0 0.0
0.925000011920929 1.0 0.0
0.949999988079071 1.0 0.0
0.9750000238418579 1.0 0.0
1.0 0.9750000238418579 0.0
1.0 0.949999988079071 0.0
1.0 0.925000011920929 0.0
1.0 0.8999999761581421 0.0
1.0 0.875 0.0
1.0 0.8500000238418579 0.0
1.0 0.824999988079071 0.0
1.0 0.800000011920929 0.0
1.0 0.7749999761581421 0.0
1.0 0.75 0.0
1.0 0.7250000238418579 0.0
1.0 0.699999988079071 0.0
1.0 0.675000011920929 0.0
1.0 0.6499999761581421 0.0
1.0 0.625 0.0
1.0 0.6000000238418579 0.0
1.0 0.574999988079071 0.0
1.0 0.550000011920929 0.0
1.0 0.5249999761581421 0.0
1.0 0.5 0.0
1.0 0.4749999940395355 0.0
1.0 0.44999998807907104 0.0
1.0 0.42500001192092896 0.0
1.0 0.4000000059604645 0.0
1.0 0.375 0.0
1.0 0.3499999940395355 0.0
1.0 0.32499998807907104 0.0
1.0 0.30000001192092896 0.0
1.0 0.2750000059604645 0.0
1.0 0.25 0.0
1.0 0.22499999403953552 0.0
1.0 0.20000000298023224 0.0
1.0 0.17499999701976776 0.0
1.0 0.15000000596046448 0.0
1.0 0.125 0.0
1.0 0.10000000149011612 0.0
1.0 0.07500000298023224 0.0
1.0 0.05000000074505806 0.0
1.0 0.02500000037252903 0.0
0.9750000238418579 0.0 0.0
0.949999988079071 0.0 0.0
0.925000011920929 0.0 0.0
0.8999999761581421 0.0 0.0
0.875 0.0 0.0
0.8500000238418579 0.0 0.0
0.824999988079071 0.0 0.0
0.800000011920929 0.0 0.0
0.7749999761581421 0.0 0.0
0.75 0.0 0.0
0.7250000238418579 0.0 0.0
0.699999988079071 0.0 0.0
0.675000011920929 0.0 0.0
0.6499999761581421 0.0 0.0
0.625 0.0 0.0
0.6000000238418579 0.0 0.0
0.574999988079071 0.0 0.0
0.550000011920929 0.0 0.0
0.5249999761581421 0.0 0.0
0.5 0.0 0.0
0.4749999940395355 0.0 0.0
0.44999998807907104 0.0 0.0
0.42500001192092896 0.0 0.0
0.4000000059604645 0.0 0.0
0.375 0.0 0.0
0.3499999940395355 0.0 0.0
0.32499998807907104 0.0 0.0
0.30000001192092896 0.0 0.0
0.2750000059604645 0.0 0.0
0.25 0.0 0.0
0.22499999403953552 0.0 0.0
0.20000000298023224 0.0 0.0
0.17499999701976776 0.0 0.0
0.15000000596046448 0.0 0.0
0.125 0.0 0.0
0.10000000149011612 0.0 0.0
0.07500000298023224 0.0 0.0
0.05000000074505806 0.0 0.0
0.02500000037252903 0.0 0.0
0.5034977377549765 0.5040800482585479 0.0
0.7106544518926002 0.7023199815672582 0.0
0.7033956476303455 0.2925617392401553 0.0
0.29631945452903596 0.7076096189201302 0.0
0.2927557424804928 0.29701492654423695 0.0
0.7774434899494778 0.5026976322536625 0.0
0.5019811474371837 0.22229060139921739 0.0
0.49310268079332303 0.7795671217960135 0.0
0.2221554055122127 0.4978964473402506 0.0
0.8261923015511691 0.8223320088965214 0.0
0.8222229893575658 0.17285188023307466 0.0
0.17779988694673537 0.8269494465942128 0.0
0.17277324969551003 0.17749961892930355 0.0
0.6425721828926635 0.565966635651021 0.0
0.5631295053829655 0.3667993524378193 0.0
0.439379975107995 0.6357914758816698 0.0
0.36158145725936197 0.43075718813562247 0.0
0.8465283684709496 0.6418466787801225 0.0
0.6425232007757959 0.1536101021432007 0.0
0.3516864490203923 0.8433312111912079 0.0
0.15355421505074257 0.35699141612633273 0.0
0.64501507042751 0.8442756737523246 0.0
0.8432276999232355 0.35664181090088765 0.0
0.1561103446434264 0.6433088272384629 0.0
0.3570882390131596 0.1564314855533352 0.0
0.6723336575449953 0.4460691260842138 0.0
0.583885501330783 0.6785687082468363 0.0
0.4451322944609818 0.3240807275710239 0.0
0.32826207670552243 0.558775601379586 0.0
0.8843737402939176 0.5300298233006093 0.0
0.5307506116956509 0.11172130769948613 0.0
0.467750013107173 0.8878638457156515 0.0
0.11181527585350899 0.4687555990021593 0.0
0.8975687164616448 0.7399211147419321 0.0
0.7403439632379346 0.10199925274265338 0.0
0.2595714040562159 0.8963464637433175 0.0
0.1025069908619038 0.25992667281374243 0.0
0.7413447664246496 0.8854325716700081 0.0
0.11458836382001707 0.7413711393555408 0.0
0.8848547827228714 0.2579582874155786 0.0
0.25822437708411167 0.1152506537206698 0.0
0.7429044899431875 0.6030441501346608 0.0
0.60936464948507 0.25033607526349594 0.0
0.39469347129435534 0.7489329843805274 0.0
0.25296252400422803 0.39531858370507067 0.0
0.5214438583940748 0.5933779878866684 0.0
0.8986473665136225 0.8873455306204914 0.0
0.8868947157309712 0.10074293395940374 0.0
0.11229414651537688 0.8985573294124275 0.0
0.10089746730888395 0.11273899436080374 0.0
0.7608812384027134 0.3882316691483135 0.0
0.2391018836143967 0.6126190196416235 0.0
0.38842168166992547 0.238382495123891 0.0
0.8992683181047207 0.435917430202943 0.0
0.43571132270496843 0.10114399368441887 0.0
0.5643919679576245 0.8974271281293232 0.0
0.10095985998277798 0.5639548443069349 0.0
0.7878726279264148 0.7413854401390397 0.0
0.7422724468044835 0.21082255089400498 0.0
0.2572921553033368 0.7887385413147936 0.0
0.2109008934165815 0.25755030230874887 0.0
0.7172690783791705 0.8012787202445436 0.0
0.7953421653276009 0.28327487807946017 0.0
0.20451055986569797 0.7166414954785272 0.0
0.28747931562285317 0.20082412862277185 0.0
0.5926033977681003 0.4948040273349012 0.0
0.4894486489023564 0.4139195181390618 0.0
0.42379407085430065 0.5481849819242821 0.0
0.6304129101289077 0.7602811093408877 0.0
0.6522512660175451 0.3530090765405035 0.0
0.49574562738874406 0.6944769215296716 0.0
0.35298152804530236 0.6441149385802254 0.0
0.3478900072753968 0.35037502708904666 0.0
0.9159740386191839 0.8158177714746002 0.0
0.8159792623152515 0.0838333611169313 0.0
0.18358131567685324 0.9156457204715316 0.0
0.08370105729943499 0.183786575897926 0.0
0.8259398454649614 0.9132292185116803 0.0
0.08640197423259476 0.8265469431822221 0.0
0.9129811671307252 0.17319215546349365 0.0
0.17309360124609538 0.08671773558255967 0.0
0.6984556776439141 0.5163085777930654 0.0
0.6496929762851458 0.6493355458382603 0.0
0.5122833739112348 0.30469023194022643 0.0
0.2994194411248963 0.4859867276283968 0.0
0.9189737876996181 0.6061889524594756 0.0
0.6118398368515711 0.08394579920834723 0.0
0.39654865337479495 0.9209193542871259 0.0
0.08198981194476009 0.38824541081870934 0.0
0.6614925206628411 0.9208730494765222 0.0
0.07868134937834938 0.661397353747137 0.0
0.9207164305274379 0.3381487798688985 0.0
0.3382688791188384 0.07903204857051521 0.0
0.823036097980755 0.43394316593368776 0.0
0.5664744195727316 0.8198977264688976 0.0
0.43369081040238155 0.1772361036255077 0.0
0.17742463630385233 0.5659756651025818 0.0
0.4321592773973495 0.4608916466572154 0.0
0.8206896437970272 0.56814917121309 0.0
0.5674143176085336 0.17996543640113938 0.0
0.43163440102808875 0.8199666089900135 0.0
0.1796900598508366 0.43157875684729785 0.0
0.7723792314768863 0.6666720121946157 0.0
0.6677769715395563 0.22415803645440993 0.0
0.3316338841074742 0.7766682047778505 0.0
0.22398562736512176 0.3325635957891501 0.0
0.9289070177438202 0.6824650804640597 0.0
0.6827723827917438 0.0708221929323015 0.0
0.3141052827834302 0.9264414953094107 0.0
0.07273818212419948 0.3142001921462587 0.0
0.561207402220649 0.7429284474381118 0.0
0.6010277087923636 0.41798291395092724 0.0
0.37452863914485 0.501070887609852 0.0
0.734012112537458 0.4552039511494549 0.0
0.45411387103912015 0.2648047855049937 0.0
0.26655206346102744 0.5447290802500051 0.0
0.5869601374824882 0.6154735700712745 0.0
0.416901083723993 0.39082109951003774 0.0
0.5706250279845735 0.5429383516245307 0.0
0.5462930304425223 0.4487866445384982 0.0
0.9349136749820706 0.4954483917060145 0.0
0.4975540000593792 0.0649891441329779 0.0
0.5017006927723346 0.9338798054450762 0.0
0.06514467241483733 0.50260798755307 0.0
0.846743444050168 0.4966339079057645 0.0
0.49667220413835556 0.15296549637994225 0.0
0.49956276491212487 0.8445955735232806 0.0
0.15266294922962703 0.5031322561071437 0.0
0.845122882498799 0.6958057354080723 0.0
0.6964445534802626 0.15460442606863206 0.0
0.30277056804643504 0.84416816908496 0.0
0.15453144344768002 0.3033764941288022 0.0
0.7676999333574784 0.8393628407564705 0.0
0.8381834444426294 0.23098782336865975 0.0
0.16143191680191588 0.7691233318462215 0.0
0.2303147383180312 0.16153143474299356 0.0
0.761644283865366 0.3252277383544936 0.0
0.2374465360599466 0.6753729954589592 0.0
0.323782530421144 0.23842801785802817 0.0
0.6397441534000344 0.3000884775135488 0.0
[...]
POINT_DATA 2209
SCALARS Psi double
LOOKUP_TABLE default
0.0
0.0
0.0
0.0
0.0
0.0
0.0
0.0
0.0
0.0
0.0
0.0
0.0
0.0
0.0
0.0
0.0
0.0
0.0
0.0
0.0
0.0
0.0
0.0
0.0
0.0
0.0
0.0
0.0
0.0
0.0
0.0
0.0
0.0
0.0
0.0
0.0
0.0
0.0
0.0
0.0
0.0
0.0
0.0
0.0
0.0
0.0
0.0
0.0
0.0
0.0
0.0
0.0
0.0
0.0
0.0
0.0
0.0
0.0
0.0
0.0
0.0
0.0
0.0
0.0
0.0
0.0
0.0
0.0
0.0
0.0
0.0
0.0
0.0
0.0
0.0
0.0
0.0
0.0
0.0
0.0
0.0
0.0
0.0
0.0
0.0
0.0
0.0
0.0
0.0
0.0
0.0
0.0
0.0
0.0
0.0
0.0
0.0
0.0
0.0
0.0
0.0
0.0
0.0
0.0
0.0
0.0
0.0
0.0
0.0
0.0
0.0
0.0
0.0
0.0
0.0
0.0
0.0
0.0
0.0
0.0
0.0
0.0
0.0
0.0
0.0
0.0
0.0
0.0
0.0
0.0
0.0
0.0
0.0
0.0
0.0
0.0
0.0
0.0
0.0
0.0
0.0
0.0
0.0
0.0
0.0
0.0
0.0
0.0
0.0
0.0
0.0
0.0
0.0
0.0
0.0
0.0
0.0
0.0
0.0
-0.013100890748456275
-0.021516019273968977
-0.004332063198495904
-0.02126218813112545
-0.00431993677494121
-0.008093608476763459
-0.0037973163855002344
-0.03220380591849455
-0.007708351070692205
-0.025631370213726506
-0.0012542192266717506
-0.0237865060369433
-0.0012440552003542013
-0.014823800359499352
-0.007580449103489353
-0.020170689851115618
-0.008919229494228912
-0.009489084102976355
-0.0020398891472749635
-0.03589069483219561
-0.0028780371758254587
-0.037354055355656904
-0.0030093242895123324
-0.00925510208913043
-0.002084036664008097
-0.009009617458559502
-0.023168171035103997
-0.006317739202406794
-0.013448722487879908
-0.004142649525016182
-0.0014611841953991848
-0.04107590828695837
-0.0030190606997144843
-0.009215111460833288
-0.0008874738637873085
-0.03631100313728162
-0.0010531363842256225
-0.03804310231912784
-0.009915713427408743
-0.001248691027444938
-0.001043260875400458
-0.013595315795747258
-0.004182241598385316
-0.0280526151284017
-0.005844559770465667
-0.017892146807252294
-0.025141109603656633
-0.0003164182209262888
-0.024015763395430285
-0.0003140941396654617
-0.005483407713201485
-0.012736556203292107
-0.0038791494656632937
-0.0023178700146521706
-0.0012240702377083231
-0.041265357835794055
-0.0037747914165396418
-0.020304991507917886
-0.002438289277512993
-0.026117630543150645
-0.002588839682770409
-0.03048439238182704
-0.00290359660414187
-0.01656554138238544
-0.002477856599022014
-0.012162999390780922
-0.009335965644967572
-0.014811037387901368
-0.02922321205045749
-0.006412475153117166
-0.0248599628549447
-0.018950569309877686
-0.006263192170810313
-0.011697296318793121
-0.0004514848893151043
-0.033124189533945775
-0.0004807599240406088
-0.03545881663978948
-0.011243509833895713
-0.00047631162010018023
-0.0004414391363982642
-0.01110479795160887
-0.01971451961223796
-0.005866650173759502
-0.009641496462407452
-0.003343696004470412
-0.0008742877928888611
-0.03960855311621897
-0.0013319609555452704
-0.039432289546113004
-0.00396699320577714
-0.0010595441032599108
-0.0007284349016226412
-0.004819475178287876
-0.03595273887426999
-0.002720027887884809
-0.007878812460068782
-0.010897861940368748
-0.008373898731549822
-0.002788220546701986
-0.03548950668107392
-0.00472625212178308
-0.015731419090193606
-0.0032544521783876503
-0.02863915637038411
-0.0039671282714411745
-0.003982934211631282
-0.0005928300104936818
-0.03704603274430004
-0.0008126014237988243
-0.02877273579606015
-0.00902733533712715
-0.0118409664911331
-0.00793224212448441
-0.004773588914287812
-0.010920141498372563
-0.018743878098063566
-0.008174181442682922
-0.0147308154522868
-0.010582178286101928
-0.001523560625077785
-0.0006372357351882127
-0.0374936081777039
-0.0015244987736215724
-0.005225076774185227
-0.002281881154871094
-0.03836156995489503
-0.005181646042536543
-0.012187511977376596
-0.0018348053035878362
-0.03414753268007017
-0.0022811168141798925
-0.032292365950338
-0.0016736552143143384
-0.01662207160371477
-0.0015056813775318684
-0.00415216004006174
-0.016022893924921056
-0.0034512449379704977
-0.005161490540592754
-0.023354223400514074
-0.0058836227268777444
-0.03846116002198279
-0.0010953811614590936
-0.0026266715016040557
-0.0006555748888052186
-0.016866813809171665
-0.025391482891608454
-0.01713201146683655
-4.7846196238681753e-05
-0.02195822358589105
-4.8338317081185605e-05
-0.016063922235267206
-0.001658155790221936
-0.000520734612430002
-0.03661460252087522
-0.00102496336201881
-0.005289710618489847
-0.00037700984925003643
-0.03337215374935603
-0.00042845982104143445
-0.03410391090690166
-0.004432672000292551
-0.00041247246271884863
-0.00034995029017222834
-0.017752351131029753
-0.0014289147048391847
-0.030137069645906123
-0.0015427612909323523
-0.0368237572539083
-0.0023021111022070826
-0.01094437397143455
-0.0018146130867648586
-0.017709044227996542
-0.012206602099552684
-0.007572472934245629
-0.010604739967692189
-0.005737779433429109
-0.024178247769315184
-0.007800649224775787
-0.015213367290006061
-0.00437195589360439
-0.007308628751285467
-0.01104197757946669
-0.00016247520859491674
-0.028529410454621304
-0.0001659876893849767
-0.031772178573172494
-0.008946957732929198
-0.0002030553843918046
-0.00019010632921371166
-0.021574156423612007
-0.006958530075675833
-0.005510804639538309
-0.015048856454695421
-0.02925734189672861
-0.006387718735647845
-0.0018294209800497588
-0.03952929414146049
-0.0030485908619537383
-0.023092586961660354
-0.003188235971355969
-0.022001776599181226
-0.0031494310158320295
-0.027784779755128008
-0.011829295791798478
-0.0032056605601866804
-0.03204323610579073
-0.004514183111639304
-0.035507959527801114
-0.0034509454454658382
-0.0005394915136179686
-0.00042157713056016453
-0.023081047362101578
-0.0006368208097301182
-0.026815816446379464
-0.0006410505092373635
-0.004736607679610091
-0.0030762212262300955
-0.010310972537661028
-0.020522554393416312
-0.024653293878228545
-0.0018750797979249494
-0.023445429690321627
-0.001862635263003189
-0.005416605233460346
-0.01739292145140417
-0.004725732299054904
-0.002368931389944605
-0.04060090721935439
-0.001469591727791958
-0.005809883167566457
-0.03390939556807683
-0.02177713946755607
-0.03238327499582114
-0.012877665919000362
-0.017575490185078483
-0.0034140152958403737
-0.01335486613113766
-0.0026304797116259164
-0.00878548584036311
-0.006187041330345799
-0.0072870945980653724
-0.000804521364571272
-0.0004211724104910252
-0.033792576066904514
-0.0013445511907269464
-0.033538485657054584
-0.0160542122780699
-0.0010490028074143256
-0.0009713578941523257
-0.0032030194754699907
-0.001436140750486682
-0.04111044398665499
-0.0036010053808964173
-0.006304789751343441
-0.0038267659838423247
-0.010335801410072691
-0.010889296690526738
-0.013249998682928888
-0.008005327180020658
-0.0013623118011489958
-0.0380141530664046
-0.0018433037865601366
-0.002022265204207641
-0.00022490651137075185
-0.02697532815206477
-0.0002407404232437896
-0.001182162675270489
-0.0002456624406760021
-0.03038946308131499
-0.0004385586795386209
-0.007807958584707274
-0.02514571427898546
-0.00816682877491735
-0.010342899302743673
-0.014097252061312708
-0.02654399352243107
-0.016988196962548902
-0.0009406189614235253
-0.03128418187560369
-0.0009998302834760724
-0.019633505985983978
-0.003475145641916377
-0.024706717356260482
-0.0037475786789246427
-0.030578646702864892
-0.0005247414601892515
-0.019506843151959056
-0.0005060466122394048
-0.013323361374339955
-0.006703147110048558
-0.027990707420990028
-0.015369994350506625
-0.0099521230877369
-0.011502179547964744
-0.03288819223333141
-0.007616039820191309
-0.009358204962876579
-0.013813971122063728
-0.009155251612780005
-0.009481591808097515
-0.004792865749404516
-0.0056615442774351635
-0.00936757393881049
-0.01765997977468708
-0.02084532616926513
-0.003976793665092873
-0.00015825843951121625
-0.027822801067095733
-0.00016998732306055164
-0.03028241482211516
-0.00406339400044156
-0.00022031287801738665
-0.00019623119194615434
-0.010448609334170253
-0.011011104154246738
-0.01576956154373373
-0.003772568853955418
-0.005871970571478362
-0.006187036322436591
-0.002312170398966109
-0.03573525157885162
-0.004532020713559697
-0.039802361959086235
-0.007452876079566988
-0.0019608199863889514
-0.001403556483474549
-0.028938778416040253
-0.001256764408501406
-0.0003611132107737357
-0.00024959687924470036
-0.0011063769069307354
-0.00034304330524885697
-0.029352506373540487
-0.0005841959382961845
-0.004025387537405692
-0.002045043437312592
-0.039205048603816094
-0.005641210023006212
-0.007647315025915974
-0.003582550096759469
-0.037926498133041914
-0.002179085064188343
-0.007651655894514562
-0.004144449804108404
-0.026816256290112653
-0.005212014857083801
-0.03718073592620281
-0.010196379318573633
-0.0008268922610775361
-0.0007252187964157036
-0.02291433165718898
-0.010739008160614913
-0.0006664533859031877
-0.03475711382190388
-0.000733915416017922
-0.006665889565838156
-0.0014851757859114252
-0.03928607212706846
-0.002196773510321
-0.010312745001219533
-5.879165700325879e-05
-0.022954689047814728
-5.9630132039708665e-05
-0.006582731632609162
-0.024057286740050917
-5.0391920199620745e-05
-5.048912170222959e-05
-0.031402571901416494
-0.01325474490573392
-0.002506054711413203
-0.03212268356808346
-0.003167010517630035
-0.03983532722765058
-0.0066065345050498984
-0.0012896726666651024
-0.0009766457278331511
-0.02066721851204481
-0.0053253606760219705
-0.020103826000388486
-0.005309160774372302
-0.0035730908797100645
-0.006431801413607029
-0.008931333105047916
-0.006794753238609536
-0.0061046011079491785
-0.003052208996063915
-0.0073434582282991415
-0.0032608367081335063
-0.0010108353211333034
-0.040782067703706175
-0.001877040676409954
-0.038665802844881844
-0.011984893290200043
-0.013061872855274409
-0.01620513081746908
-0.01557948465685125
-0.005083221028916023
-0.006485916635172711
-0.008773991556047436
-0.0023453292236576447
-0.03615168460637332
-0.003579673701981757
-0.0044090838218839
-0.0032507671945739146
-0.013056270971766143
-0.030654710222716236
-0.01049323012487961
-0.01734080893651268
-0.002740145356599075
-0.028149478179414905
-0.0031284003716052205
-0.0006853483468265892
-0.0002588041386795691
-0.028142049295303173
-0.0005795273479823968
-0.017117982924776197
-0.017834116398726712
-0.024998755739027816
-0.011167533873071345
-0.007965197815095457
-0.0054422330120504755
-0.01285606670733195
-0.02126198681135122
-0.02673291339033192
-0.034081599839056766
-0.001998977625759745
-0.01435167592898144
-0.0017019997753105634
-0.02742624701838049
-0.0023347752965906647
-0.02033454009276534
-0.002197888110514098
-0.01402710463133301
-0.0014903433610639427
-0.03307003895420085
-0.001716708925288444
-0.006768580572177553
-0.0008375871553100484
-0.03756332880938728
-0.0010880302679330718
-0.007617355531394114
-0.004153562105450304
-0.009415290052016134
-0.023529937507062223
-0.0043348521167402175
-0.024176468364905526
-0.004849837604557882
-0.010322502287749481
-0.006734110376714536
-0.0012405864310081301
-0.00018706963812176067
-0.02414065770860063
-0.00022587348412625303
-0.009305582919943848
-0.008558833768235715
-0.019512917213086987
-0.004359594367325817
-0.0008620542158437878
-0.03898179426591925
-0.0011879562618666315
-0.0038757929875521306
-0.019361828209103357
-0.0035934281906543227
-0.017065996066626135
-0.00035074702013663124
-0.029582652247326226
-0.0003537947058675817
-0.027331402644741005
-0.0013648052187477681
-0.0002773575884149519
-0.00020502059183927354
-0.0005075610366664349
-0.00023113932570385093
-0.026063580800884664
-0.0005855003650440756
-0.002265899949308382
-0.0007759894448612055
-0.0393256198741759
-0.001674852179311157
-0.010934065977277585
-3.771646762138439e-06
-0.012721439107470896
-3.396207031800054e-06
-0.01824350485508688
-0.006804334236160596
-0.004634094904895165
-0.01266096502180523
-0.029634114367102563
-0.0007906191974518215
-0.020681773150673932
-0.000770543842575751
-0.025231466821287605
-0.0017469605028379285
-0.00018436277246001762
-0.00015723939041611943
-0.002990429717273349
-0.006161118490302614
-0.007002114499322424
-0.024685267894331207
-0.011532779999919978
-0.03991545511585351
-0.0036496806649796544
-0.0012406273386180132
-0.0007975223623580981
-0.03434782142851873
-0.03142628591458584
-0.03500731385021857
-0.013994065206014244
-0.0013781851697932132
-0.0012104206470702863
-0.03783400922382445
-0.0007219956828820242
-0.005620714336308641
-0.000589834795427316
-0.032813967399609484
-0.022432466132720097
-0.005929446701167536
-0.0005138712485278232
-0.035318586703971505
-0.0006071698870180745
-0.011762718512630152
-0.0015091475878055598
-0.0007475854116803833
-0.03918892543595403
-0.002135831905418334
-0.02720757021609537
-0.0008244816462559543
-0.0004040896241534701
-0.00022965725366864135
-0.019430654844607223
-0.01636376841385426
-0.01747544557619377
-0.010159895144954953
-0.02770489544628986
-0.0029533647199231974
-0.040486512577723226
-0.001636250022106691
-0.005306758703435713
-0.015063746395126618
-0.00995485450238184
-0.0053859652692455125
-0.00849868506561762
-0.032246532651387876
-0.004751301404152606
-0.006737704916035113
-0.004699950102171125
-9.917985437819611e-05
-9.387807325142638e-05
-9.007484033561134e-05
-0.02475152542289226
-0.0033305287892059603
-0.025039916601216614
-0.00010276848854405744
-0.00618738120623465
-0.017496379561708183
-0.005429671571630268
-0.014243279688305792
-0.013340835436591099
-0.005087730634521816
-0.014882591137532873
-0.003984604734929958
-0.02274316971922194
-0.013659362936270096
-0.027979930304440053
-0.001483558773936189
-0.021145311707744963
-0.0014287243817573717
-0.024515648945696016
-0.02029927092248596
-0.0018239418877129612
-0.022209621079556627
-0.0014467788149164715
-0.027290333288999793
-0.026356180452591468
-0.0019357247689304152
-0.0014776669356311029
-0.003607307744840982
-0.010723093930912635
-0.0025359736651517062
-0.030272589372752665
-0.00161925644113818
-0.040397123332027114
-0.0009159765250863342
-0.0032731103502016486
-0.02105493989349972
-0.00011142153065174435
-0.022532234707207624
-0.0001107542491646287
-0.0012513853333416451
-0.0001079526187682491
-0.021499399163735264
-0.00012486090245074097
-0.005861860935471152
-0.006348049924200322
-0.02130081040162679
-0.0019753828157144503
-0.00010964559187958556
-0.022857939342832045
-0.0001214178113075423
-0.024250004653234132
-0.002045996313041885
-0.0001392066089314311
-0.00012708222478729125
-0.01345377037535108
-0.013635118174489442
-0.0010801923576482676
-0.033654101135391586
-0.0012128988553680017
-0.004324375166361868
-0.0017778145701665244
-0.04026371082799472
-0.0039788604427095
-0.017380949562074553
-0.0021224612260356598
-0.029238982959409673
-0.002378549696831232
-0.003577367087819552
-0.015382946670618493
-0.003047361569247257
-0.011415776057262631
-0.03440713559043913
-0.036830197743469316
-0.006021108292067378
-0.014651020987668498
-0.00462023712572246
-0.030497162543130014
-0.014886834049801971
-0.00020005430415723056
-0.00019343388167446303
-0.01017055916632167
-0.001816349401764632
-0.03587270536079146
-0.0024021081072458767
-0.023797365216869412
-0.00244295444527122
-0.02308359672021346
-0.0024217815172531067
-0.007961539711192456
-0.02006739725188837
-0.015019004270600532
-0.007962042099364313
-0.008740163383441999
-0.02681503826002561
-0.00027209257093632446
-8.790187549044782e-05
-0.01813340438485107
-0.00016858772704976066
-0.015362835136293121
-0.037886966647561825
-0.007442419445658899
-0.012006439947986182
-0.008585216625319534
-0.005311884031963272
-9.898700931560609e-06
-0.007602275986898331
-0.018357193212191283
-0.01680025131811842
-9.144856182395175e-06
-1.2325393791030984e-05
-1.2767341959296432e-05
-0.018065730102107047
-0.0025675486759652462
-0.0026788632768269577
-0.013163888598665043
-0.010243096317627686
-0.0021695438710185875
-0.001995707906335624
-0.025839387307170295
-0.01167207661985768
-0.00474604323432467
-0.01820206591846241
-0.004255323901740998
-0.009258628966080663
-0.03005951308534
-0.011292380056325291
-0.0014183764061093465
-0.03533596035902343
-0.0017251517671472293
-0.023453835689309817
-0.0037660516498939935
-0.029200077576458018
-0.005038160673140085
-0.025500160404874368
-0.011647380101659428
-0.0026435869706162556
-0.03327966006619908
-0.00360438498314988
-0.0337813216467295
-0.0119355934673896
-0.00033242149705299816
-0.0003108272689908532
-0.036753931201620384
-0.011718060852899555
-0.0016784946983664558
-0.001396725790210549
-0.01591093558324868
-0.0076379624107794685
-0.018192385540653562
-0.029358308124653086
-0.006295510327869537
-0.004370302304399842
-0.008058737260296593
-0.019215699922548825
-0.009439549511837604
-0.005350290175268768
-0.003568840425488224
-0.011440879282330809
-0.0031165939398472933
-0.01827527259579094
-0.0028082777199890216
-0.005570325472611568
-0.0018689805049186185
-0.003482483073357676
-0.025723385492124846
-0.03116413481845241
-0.017214289143496153
-0.002116535091120225
-0.0018904286183165384
-0.007614530393931323
-0.0003452962358435418
-0.03307276112362541
-0.00037431562084441126
-0.03476291289949608
-0.006240120095409617
-0.0003959897303675284
-0.00034918462942649963
-0.011295993902257117
-0.006547860210205878
-0.01672265755989758
-0.005074996232497805
-0.0024749126282419135
-0.00617894156686415
-0.02349540171886108
-0.0006760006763918574
-0.00023196284754241833
-0.0001548195181693897
-0.02141730605512375
-0.008816101486235878
-0.02984047620997912
-0.00019417556450107402
-0.0001977037983287772
-0.020351296831981745
-0.002824499110850107
-0.025270689590722366
-0.0029989982990721643
-0.01394054701954853
-0.007736978010517312
-0.001919730906059128
-0.038356035125865606
-0.0029115400113328242
-0.039917978627178025
-0.0023252420144364173
-0.007068943739471895
-0.0015522913552676058
-0.027298421509664376
-0.01253510558391639
-0.03496667918838127
-0.034014362330206396
-0.0006557683832700901
-0.015296200176658383
-0.0006171621595533162
-0.006033650228525234
-0.002604553047227145
-0.03895265359251451
-0.005787298212791063
-5.811262316073881e-05
-0.023287736002707376
-6.175895450144843e-05
-0.021131250690691505
-0.003320300290708302
-4.394868460962951e-05
-4.370164766926589e-05
-0.023222550071645823
-0.005063605274703905
-0.0030345599456089753
-0.00915110066638011
-0.024153889776060544
-0.0009281895161991682
-0.025693078294893344
-0.0009368154800770512
-0.007097903021109487
-0.0006324338406562604
-0.0011410755405912405
-0.01358418882934916
-0.012004578408119408
-0.003728157410269495
-0.021751947858072808
-0.003707728801885624
-0.00042463808660735727
-0.00011072552662597057
-0.021241268738253924
-0.00019007225706429152
-0.019544826478465532
-0.0401533703767634
-0.037948634570187455
-0.005337571684962487
-0.0013598348714999166
-0.04053545331045116
-0.002162187452863555
-0.03875359987843602
-0.000874908173784369
-0.004292705968958329
-0.0006487958684630642
-0.018050165509589818
-0.00025787846437085174
-0.02809484398504113
-0.0002605273533179155
-0.014240224349454484
-0.016711828395645504
-0.0005672663229393146
-0.031090436584948835
-0.0005890896141047632
-0.030088787357036403
-0.007313082536383806
-0.0022796370934549614
-0.003873593852753588
-0.027054548624449917
-0.0004797959571963905
-0.02312747404719781
-0.00047230057289680946
-0.003771331075970595
-0.0024678289450179246
-0.009353462414746851
-0.007625534075362418
-0.004497157234818635
-0.0005459752990450567
-0.0367998067586411
-0.0007869984188819289
-0.016132730594499056
-0.0005327069600120684
-7.560661269606598e-05
-6.232294065276841e-05
-0.002923243428206785
-0.005493045218176167
-0.012515261228448827
-0.0051130515147605
-0.008951009401733052
-0.017892929487770267
-0.008245204496042421
-0.010175629889190114
-0.003156073882845694
-0.004903428008869388
-0.00048407962081407853
-9.08239137421091e-05
-0.019181289787351716
-0.00012486472518671344
-0.0059271013984235526
-0.0058876641066999726
-0.0033228116392174313
-0.008814498343922872
-0.031139019445166942
-0.017882751178770428
-0.0003443705055196768
-0.00033459136517769426
-0.006753710655669465
-0.03571668932614477
-0.003003032432696909
-0.001252415773027469
-0.04119874294858328
-0.0028583570082470985
-0.01667658933078817
-0.013619406441233934
-0.007933316090568647
-0.03378661545888367
-0.00471831366714019
-0.021913848776249474
-0.004905872886001345
-0.0032410556307735563
-0.030311235300729895