# vtk DataFile Version 1.0
2D Simulation C++
ASCII
DATASET UNSTRUCTURED_GRID
FIELD FieldData 1
NODES 1 2 int
2209 4256

POINTS 2209 double
0.0 0.0 0.0
0.0 1.0 0.0
1.0 1.0 0.0
1.0 0.0 0.0
0.0 0.02500000037252903 0.0
0.0 0.05000000074505806 0.0
0.0 0.07500000298023224 0.0
0.0 0.10000000149011612 0.0
0.0 0.125 0.0
0.0 0.15000000596046448 0.0
0.0 0.17499999701976776 0.0
0.0 0.20000000298023224 0.0
0.0 0.22499999403953552 0.0
0.0 0.25 0.0
0.0 0.2750000059604645 0.0
0.0 0.30000001192092896 0.0
0.0 0.32499998807907104 0.0
0.0 0.3499999940395355 0.0
0.0 0.375 0.0
0.0 0.4000000059604645 0.0
0.0 0.42500001192092896 0.0
0.0 0.44999998807907104 0.0
0.0 0.4749999940395355 0.0
0.0 0.5 0.0
0.0 0.5249999761581421 0.0
0.0 0.550000011920929 0.0
0.0 0.574999988079071 0.0
0.0 0.6000000238418579 0.0
0.0 0.625 0.0
0.0 0.6499999761581421 0.0
0.0 0.675000011920929 0.0
0.0 0.699999988079071 0.0
0.0 0.7250000238418579 0.0
0.0 0.75 0.0
0.0 0.7749999761581421 0.0
0.0 0.800000011920929 0.0
0.0 0.824999988079071 0.0
0.0 0.8500000238418579 0.0
0.0 0.875 0.0
0.0 0.8999999761581421 0.0
0.0 0.925000011920929 0.0
0.0 0.949999988079071 0.0
0.0 0.9750000238418579 0.0
0.02500000037252903 1.0 0.0
0.05000000074505806 1.0 0.0
0.07500000298023224 1.0 0.0
0.10000000149011612 1.0 0.0
0.125 1.0 0.0
0.15000000596046448 1.0 0.0
0.17499999701976776 1.0 0.0
0.20000000298023224 1.0 0.0
0.22499999403953552 1.0 0.0
0.25 1.0 0.0
0.2750000059604645 1.0 0.0
0.30000001192092896 1.0 0.0
0.32499998807907104 1.0 0.0
0.3499999940395355 1.0 0.0
0.375 1.0 0.0
0.4000000059604645 1.0 0.0
0.42500001192092896 1.0 0.0
0.44999998807907104 1.0 0.0
0.4749999940395355 1.0 0.0
0.5 1.0 0.0
0.5249999761581421 1.0 0.0
0.550000011920929 1.0 0.0
0.574999988079071 1.0 0.0
0.6000000238418579 1.0 0.0
0.625 1.0 0.0
0.6499999761581421 1.0 0.0
0.675000011920929 1.0 0.0
0.699999988079071 1.0 0.0
0.7250000238418579 1.0 0.0
0.75 1.0 0.0
0.7749999761581421 1.0 0.0
0.800000011920929 1.0 0.0
0.824999988079071 1.0 0.0
0.8500000238418579 1.0 0.0
0.875 1.0 0.0
0.8999999761581421 1.0 0.0
0.925000011920929 1.0 0.0
0.949999988079071 1.0 0.0
0.9750000238418579 1.0 0.0
1.0 0.9750000238418579 0.0
1.0 0.949999988079071 0.0
1.0 0.925000011920929 0.0
1.0 0.8999999761581421 0.0
1.0 0.875 0.0
1.0 0.8500000238418579 0.0
1.0 0.824999988079071 0.0
1.0 0.800000011920929 0.0
1.0 0.7749999761581421 0.0
1.0 0.75 0.0
1.0 0.7250000238418579 0.0
1.0 0.699999988079071 0.0
1.0 0.675000011920929 0.0
1.0 0.6499999761581421 0.0
1.0 0.625 0.0
1.0 0.6000000238418579 0.0
1.0 0.574999988079071 0.0
1.0 0.550000011920929 0.0
1.0 0.5249999761581421 0.0
1.0 0.5 0.0
1.0 0.4749999940395355 0.0
1.0 0.44999998807907104 0.0
1.0 0.42500001192092896 0.0
1.0 0.4000000059604645 0.0
1.0 0.375 0.0
1.0 0.3499999940395355 0.0
1.0 0.32499998807907104 0.0
1.0 0.30000001192092896 0.0
1.0 0.2750000059604645 0.0
1.0 0.25 0.0
1.0 0.22499999403953552 0.0
1.0 0.20000000298023224 0.0
1.0 0.17499999701976776 0.0
1.0 0.15000000596046448 0.0
1.0 0.125 0.0
1.0 0.10000000149011612 0.0
1.0 0.07500000298023224 0.0
1.0 0.05000000074505806 0.0
1.0 0.02500000037252903 0.0
0.9750000238418579 0.0 0.0
0.949999988079071 0.0 0.0
0.925000011920929 0.0 0.0
0.8999999761581421 0.0 0.0
0.875 0.0 0.0
0.8500000238418579 0.0 0.0
0.824999988079071 0.0 0.0
0.800000011920929 0.0 0.0
0.7749999761581421 0.0 0.0
0.75 0.0 0.0
0.7250000238418579 0.0 0.0
0.699999988079071 0.0 0.0
0.675000011920929 0.0 0.0
0.6499999761581421 0.0 0.0
0.625 0.0 0.0
0.6000000238418579 0.0 0.0
0.574999988079071 0.0 0.0
0.550000011920929 0.0 0.0
0.5249999761581421 0.0 0.0
0.5 0.0 0.0
0.4749999940395355 0.0 0.0
0.44999998807907104 0.0 0.0
0.42500001192092896 0.0 0.0
0.4000000059604645 0.0 0.0
0.375 0.0 0.0
0.3499999940395355 0.0 0.0
0.32499998807907104 0.0 0.0
0.30000001192092896 0.0 0.0
0.2750000059604645 0.0 0.0
0.25 0.0 0.0
0.22499999403953552 0.0 0.0
0.20000000298023224 0.0 0.0
0.17499999701976776 0.0 0.0
0.15000000596046448 0.0 0.0
0.125 0.0 0.0
0.10000000149011612 0.0 0.0
0.07500000298023224 0.0 0.0
0.05000000074505806 0.0 0.0
0.02500000037252903 0.0 0.0
0.5068107481068156 0.5041310551936659 0.0
0.7124220708575393 0.703742260093014 0.0
0.7037002651689946 0.29622545296021513 0.0
0.29849669755513875 0.7071497748543782 0.0
0.2960722682691833 0.2970264999623095 0.0
0.7770250852394 0.5068379985537682 0.0
0.5035325745111032 0.22338505481354376 0.0
0.4934037757813768 0.7789288559182155 0.0
0.22428162067440185 0.49778522713078627 0.0
0.8298260997840816 0.8221787847587906 0.0
0.8207836091220214 0.1723446161224419 0.0
0.18162179318495475 0.8306765272159233 0.0
0.1720857774496537 0.1810801198091692 0.0
0.643929084880789 0.5668010958688176 0.0
0.5647768022281272 0.3682000558902881 0.0
0.4431207199198663 0.63571314404765 0.0
0.3637355156062819 0.42880055534394196 0.0
0.8458385179457036 0.6451236743068468 0.0
0.6454701244985055 0.15676232611718477 0.0
0.35156507710927054 0.8430690172323457 0.0
0.15673668271749674 0.3563099771951714 0.0
0.6496291462041336 0.8427571696241635 0.0
0.8429876679447591 0.35967645548394234 0.0
0.1594446074519939 0.6440908687334268 0.0
0.3597134806503867 0.15816546577649926 0.0
0.6749430402919676 0.45026184701599486 0.0
0.5849669756658019 0.6774069968844008 0.0
0.4478906860667251 0.3214098510156413 0.0
0.3297401755878517 0.5570897421642805 0.0
0.8832210452524233 0.532890225311757 0.0
0.5325093355425984 0.11438804391296109 0.0
0.4681000868674081 0.8872937989419917 0.0
0.11427847762692502 0.47002991246877773 0.0
0.8986778661460468 0.7435106408749775 0.0
0.743114315835873 0.10389765375949817 0.0
0.25994002290842083 0.8982252116470176 0.0
0.10455390485688759 0.25946611485548887 0.0
0.7464670992889811 0.8842370194028779 0.0
0.11993351855977365 0.7452808584517605 0.0
0.882561898297575 0.25767153102224444 0.0
0.2574243645352666 0.11957334369728732 0.0
0.7428165332083555 0.6052904768911741 0.0
0.6102149221800569 0.25226868990141144 0.0
0.3966396099721899 0.7491097129935588 0.0
0.25556826841708064 0.3958470199303143 0.0
0.5247131621606891 0.5929799451317492 0.0
0.900221600999489 0.8869184840283654 0.0
0.8858206824836602 0.10214208437047377 0.0
0.11722634426137112 0.9008872250593299 0.0
0.10212938885214493 0.11694546477314861 0.0
0.7626736217668881 0.3938469993032865 0.0
0.24003657724104832 0.6110382433157042 0.0
0.3922185172352761 0.2371560391295091 0.0
0.8983343271126978 0.43885209631036975 0.0
0.4380945029349062 0.10367692774549213 0.0
0.5664139408746992 0.8957916483360912 0.0
0.10416701232641548 0.5649577913766288 0.0
0.7895206122094571 0.7438141104114193 0.0
0.7435477332732308 0.21290053993979977 0.0
0.2587656397647093 0.7900582588561421 0.0
0.21279336439090737 0.25804936228929665 0.0
0.7217130279727826 0.801649498411263 0.0
0.7951086690168789 0.2851301135924051 0.0
0.20713411188312852 0.7183206346010198 0.0
0.28878986440917587 0.20245196062534093 0.0
0.5954784184859502 0.4960972718300031 0.0
0.4921654426109417 0.41323882592617334 0.0
0.4267168389090055 0.5475359409435955 0.0
0.6333094783369069 0.7593946653395489 0.0
0.6532089081155371 0.3559158788447499 0.0
0.4974087534635524 0.6934162855558765 0.0
0.3555321080583447 0.6436697762679865 0.0
0.350917246870681 0.34836185713328816 0.0
0.9173220094281982 0.8168859846173976 0.0
0.816571681168979 0.08520337668822721 0.0
0.18642770728760963 0.9177507380570924 0.0
0.08522636051704374 0.18611337922739646 0.0
0.8291132851039297 0.9114959841252895 0.0
0.09219896035788268 0.8296976226023449 0.0
0.9103426787286474 0.17332985709466545 0.0
0.17314455100075563 0.0921303859552413 0.0
0.6993824506005013 0.5194286758415008 0.0
0.6503217547803222 0.649842941092553 0.0
0.5137432160534555 0.3049932741788756 0.0
0.30142816557229785 0.48509903831774326 0.0
0.9187282859611406 0.6093566886032477 0.0
0.6144019762135989 0.08674157304857616 0.0
0.39679916886880745 0.9217023444568687 0.0
0.08456911096496754 0.38829854899196703 0.0
0.6652363152453578 0.9204152682807688 0.0
0.08238282031061263 0.6634423194554413 0.0
0.9199637764104304 0.3398367819397041 0.0
0.33959492316308965 0.08239315947335171 0.0
0.8226553740290142 0.4384797770631765 0.0
0.5682150230266297 0.8174382934695653 0.0
0.4369282616974281 0.17832970894497502 0.0
0.17979795788633496 0.5658636270817459 0.0
0.43529561947966294 0.45905943931040727 0.0
0.8196770451053476 0.5714607841699229 0.0
0.5695905101868856 0.1824503049010356 0.0
0.43153524150536293 0.8196357471909079 0.0
0.1824627432848391 0.4326247745971579 0.0
0.7722298225207096 0.6693628499131676 0.0
0.66944928675678 0.22706058617666106 0.0
0.3329674745979393 0.776699640504807 0.0
0.2274404868296448 0.3322904631010968 0.0
0.9299821612985513 0.6860579181225681 0.0
0.686319565056663 0.07331288529365643 0.0
0.3141251016296137 0.9280898454719141 0.0
0.07537928892578437 0.3129517096142588 0.0
0.5624399505840713 0.74125001020824 0.0
0.6033421140758058 0.42094120941639646 0.0
0.3767913228063574 0.4995230962296301 0.0
0.7350403198424817 0.4602652225944094 0.0
0.45683889789686716 0.2636644822199305 0.0
0.26832739640245495 0.5435308286646063 0.0
0.5887805871352707 0.6151845556303507 0.0
0.4193848994549041 0.3878084395949524 0.0
0.5734581400465686 0.543014361418992 0.0
0.5495300014928114 0.4497755222041385 0.0
0.9350337323063946 0.498064328934905 0.0
0.49896360631532805 0.06761106425337504 0.0
0.5032829964160087 0.9333065274022485 0.0
0.06764785115445496 0.5037163369838713 0.0
0.8461733345013875 0.5001464764375104 0.0
0.4985698981549973 0.15509049233897654 0.0
0.500278544806359 0.8432175532354862 0.0
0.15538862898210976 0.5039465490048735 0.0
0.8455550264894128 0.6991875342960526 0.0
0.6992433479359835 0.15704284648090674 0.0
0.30254977780925923 0.8450902282895704 0.0
0.15721726751490678 0.3025894436290261 0.0
0.7724281250549798 0.8388016997741955 0.0
0.8360856390911033 0.23026967614418237 0.0
0.1663348888010224 0.7729238936587735 0.0
0.22942144090963318 0.16531618668225542 0.0
0.7628726081279954 0.3290557516154667 0.0
0.23932973821769665 0.6749951442157568 0.0
0.32733077752904005 0.23833977768730097 0.0
0.6404698322121569 0.30285648425539713 0.0
[...]
POINT_DATA 2209
SCALARS Psi double
LOOKUP_TABLE default
0.0
0.0
0.0
0.0
0.0
0.0
0.0
0.0
0.0
0.0
0.0
0.0
0.0
0.0
0.0
0.0
0.0
0.0
0.0
0.0
0.0
0.0
0.0
0.0
0.0
0.0
0.0
0.0
0.0
0.0
0.0
0.0
0.0
0.0
0.0
0.0
0.0
0.0
0.0
0.0
0.0
0.0
0.0
0.0
0.0
0.0
0.0
0.0
0.0
0.0
0.0
0.0
0.0
0.0
0.0
0.0
0.0
0.0
0.0
0.0
0.0
0.0
0.0
0.0
0.0
0.0
0.0
0.0
0.0
0.0
0.0
0.0
0.0
0.0
0.0
0.0
0.0
0.0
0.0
0.0
0.0
0.0
0.0
0.0
0.0
0.0
0.0
0.0
0.0
0.0
0.0
0.0
0.0
0.0
0.0
0.0
0.0
0.0
0.0
0.0
0.0
0.0
0.0
0.0
0.0
0.0
0.0
0.0
0.0
0.0
0.0
0.0
0.0
0.0
0.0
0.0
0.0
0.0
0.0
0.0
0.0
0.0
0.0
0.0
0.0
0.0
0.0
0.0
0.0
0.0
0.0
0.0
0.0
0.0
0.0
0.0
0.0
0.0
0.0
0.0
0.0
0.0
0.0
0.0
0.0
0.0
0.0
0.0
0.0
0.0
0.0
0.0
0.0
0.0
0.0
0.0
0.0
0.0
0.0
0.0
-0.060167781176526595
-0.09035186459692265
-0.013890643948629329
-0.05740437870513362
-0.013902467024009605
-0.03501184833177559
-0.012265569172827413
-0.09264343052164173
-0.024315468350749738
-0.06818571191788712
-0.0015126424526970713
-0.03822766129108186
-0.002289428899700519
-0.07229128827189225
-0.03239636982973648
-0.0776609057994423
-0.034987300928140855
-0.039849952699383406
-0.004736220011342762
-0.06930643683325201
-0.007537616464273569
-0.09098655642874219
-0.007282064719805758
-0.021616743367257187
-0.005231865761020306
-0.04122525877681497
-0.09575317661534177
-0.02411209303561491
-0.04843500046243496
-0.013663588749622485
-0.003353537213322979
-0.07179632734032378
-0.007439548713451799
-0.031347321990114946
-0.0011537121110200953
-0.050918299814844185
-0.001965894485959008
-0.07339162434408932
-0.017600650425736847
-0.001584023353167125
-0.001950594806048956
-0.06478557754049993
-0.013746626090915854
-0.07913487549093584
-0.019566792345146057
-0.07942079176492332
-0.041070463993796005
-9.248147517685897e-05
-0.027929442527933328
-0.0003132478906504481
-0.019659709170165074
-0.036745328652650885
-0.012284162607900403
-0.005496226396598488
-0.002720791010389039
-0.07273189303382864
-0.00861789960265533
-0.07689588958252504
-0.005257389639686189
-0.053441918476656296
-0.00662756645904278
-0.09263814839718319
-0.006726167056510913
-0.037039134064562836
-0.006454924814254984
-0.05859563580087768
-0.04094695973994323
-0.061599557946443
-0.10080999088363332
-0.0256492597591999
-0.09116213375327746
-0.06367622814856468
-0.022957526977759393
-0.029440515386187985
-0.00030753887931251836
-0.03973862941870458
-0.0006440109846344321
-0.05470202073640801
-0.015572341924574264
-0.000247361395130131
-0.0005595099094944594
-0.05339734716243629
-0.08967849306163994
-0.02257555780884905
-0.034878043729245904
-0.010960592772204538
-0.001632235320497691
-0.0548752484834238
-0.0029468399135364684
-0.06088315019827803
-0.007433442316002908
-0.0014967837770325269
-0.0013790223884996586
-0.01606206138651069
-0.09469655998628557
-0.007675562314442368
-0.02145764387557083
-0.04651850144285658
-0.035830311903698786
-0.007835771271711596
-0.08224076940134943
-0.013909910383201577
-0.07040547656775904
-0.009134105042253744
-0.06810014306823166
-0.01193752466016558
-0.013048591759273533
-0.0008523821819981864
-0.047684295433287616
-0.0015488489858297462
-0.09938353510228708
-0.04119687215390477
-0.047289756089835634
-0.034473058787730416
-0.016604539883643892
-0.035994736716667045
-0.08573281302433695
-0.03310223622560447
-0.07024321290966568
-0.04915297570739343
-0.0034779605529473936
-0.0012591318877222836
-0.05210935015715352
-0.0033104020675657287
-0.018492872378226437
-0.006089519460789498
-0.0855696592380594
-0.014081094516132875
-0.04920590030597293
-0.003686162583918858
-0.061888284877940625
-0.005524267960442486
-0.08099699314758381
-0.0024993999893974475
-0.030513726810329992
-0.003086619659203725
-0.012469954090085594
-0.04160928199802645
-0.010338648870252461
-0.018615402115599065
-0.07101111927111774
-0.020600515209756004
-0.05646538762490782
-0.0018126728117391414
-0.005224014453220818
-0.0012780423503868195
-0.06362045475230345
-0.08483879272060384
-0.017473834827946698
-1.2652827397365642e-05
-0.024399563050057627
1.7130005730210923e-05
-0.07081767284802029
-0.004326619307828644
-0.000952499971021049
-0.047331231070809
-0.002135447777437491
-0.015653378118272027
-0.00033439934516327956
-0.038962579394839464
-0.0006315595792798223
-0.04697902558826815
-0.006705418454950622
-0.00027737572777755703
-0.0004978846857217236
-0.05878171225352557
-0.002109329749143003
-0.04942532949517757
-0.00316210999431326
-0.08724655071539043
-0.00454980411424847
-0.023044384257865855
-0.0042321490265517965
-0.08188510630264964
-0.059377797428737215
-0.0318415289263244
-0.049836088800780595
-0.02199428860467654
-0.09794250733951868
-0.028576479118812982
-0.07374931748919958
-0.01490955295677345
-0.02444521276517182
-0.019970520915286373
-3.0217598385376936e-05
-0.03009613694469674
-0.00014193852079573267
-0.040610215735879626
-0.010973634595133884
-3.321586781413611e-05
-0.00017434359756924954
-0.08997752619381216
-0.028816184330175746
-0.01978490489058161
-0.0495269249787893
-0.08740722045627987
-0.02481351995775575
-0.00435622063581903
-0.0734265861655548
-0.00797081090712405
-0.08831363525045104
-0.008216895844699399
-0.0509645845976544
-0.008908098465948032
-0.09767583914313793
-0.05389717990616253
-0.009277300124807914
-0.0762022471242648
-0.01380559087849519
-0.048947707498694766
-0.005589801466995165
-0.0004868761290600282
-0.0006641785765927897
-0.05004468006715809
-0.0004330151774165659
-0.03520254979530999
-0.0008809688057366745
-0.015421073629842054
-0.008949815528949641
-0.027970600308849805
-0.08398091578210841
-0.07753969849591695
-0.0031790225330971924
-0.043339294120936615
-0.0041196084269916325
-0.019595150148805043
-0.051279521809229386
-0.015906762648864516
-0.005231024142862375
-0.0801404808662171
-0.003375616693409709
-0.012990180710238356
-0.09813032370919092
-0.07463819319651772
-0.09612407001903009
-0.05639513528669866
-0.07251227178892349
-0.00889708805136011
-0.03209136362556789
-0.007113338947583733
-0.03904587234716813
-0.02442986691407567
-0.027124337947541446
-0.0013510015601661473
-0.0007716804636937277
-0.04434652872236855
-0.0026359148580301695
-0.07022862758268247
-0.02573340750866913
-0.0010752753540800683
-0.0016431068740858353
-0.0091278322568817
-0.003330595394162703
-0.07515719591355104
-0.008692971441037695
-0.024420587544874396
-0.012206634161694839
-0.031079887918781263
-0.04860483930844218
-0.06249676208278974
-0.030943814110224926
-0.002569773534787169
-0.06176824016123327
-0.00421042126632524
-0.0060933895016818595
-0.00022626854175182985
-0.029346582334285304
-0.0003574124250279029
-0.003337014187388128
-0.0003450322762551307
-0.03474589253579248
-0.0007950381943385914
-0.03219947076294719
-0.09630508005138207
-0.03619385849447193
-0.04899241577776768
-0.055485428297980276
-0.10019549695531527
-0.04874962176972164
-0.0010086565067423555
-0.04467022648462616
-0.0017069490793398525
-0.08257686012272489
-0.009776279708560234
-0.06001097209100283
-0.011277654445900053
-0.05364895039376773
-0.00027707894812369516
-0.025553478386724084
-0.0006353167601331251
-0.06520626171047833
-0.025641179067265676
-0.09504944797507894
-0.07083961279087207
-0.03822571969469163
-0.04307538676481299
-0.09640160731278702
-0.03287351976842166
-0.03984309721068094
-0.06727160280402844
-0.04180835412088763
-0.044053863076622596
-0.01697388429338274
-0.021106384058359715
-0.03164018733285833
-0.08337375216578276
-0.09215443538239532
-0.0098276209752819
-7.427123542331872e-05
-0.029459286923692284
-0.00018626309240370563
-0.03819243064400929
-0.005428101875553097
-7.63507597872561e-05
-0.0002189093644085636
-0.04264512713995745
-0.05114188003528871
-0.05569737969918193
-0.012023215697211974
-0.018856761973577597
-0.023684654360499255
-0.006141672143257225
-0.08696660294592598
-0.012547246478836697
-0.07999709815435098
-0.015466648152407777
-0.0036676755883520663
-0.0030868226782213787
-0.035484697879926044
-0.002099889332811825
-0.0004007441601093252
-0.00039771899413564585
-0.002923815751191676
-0.0005689290674351588
-0.033469530913359066
-0.0011544866497323488
-0.012334369909852393
-0.005269270836977332
-0.08650417362833862
-0.014500702886620701
-0.029751770786261563
-0.009943116353190052
-0.09120651511711805
-0.005672059943211892
-0.019003681902849363
-0.013389086935871028
-0.07361846635332095
-0.017176450207326444
-0.0649614728017224
-0.01623536726430509
-0.0007454988649062595
-0.001162208000565573
-0.08548406188715817
-0.03185034919056858
-0.0006519178494115146
-0.045120050992763276
-0.0011783606770705043
-0.025977265872725214
-0.0031306700488400504
-0.06657423862375499
-0.005328174276340114
-0.014165922390643392
1.023164222112467e-05
-0.022823577766007595
-2.6478318877081102e-05
-0.007083468928073782
-0.02594229880512788
-2.0033470850780558e-05
1.2845661404512854e-05
-0.08232766216201982
-0.05735106611801821
-0.006124037175653318
-0.06702136597216864
-0.008722102390808726
-0.07028755434141042
-0.01236743520298377
-0.001828169561398627
-0.0018938362138545453
-0.09089134731794904
-0.019375533368133347
-0.060787488212333166
-0.018369164991264342
-0.011187413861342152
-0.020194271701284263
-0.039647730146121676
-0.02775776498256437
-0.02318459793985814
-0.009057379422414236
-0.021317482661695586
-0.010319041609192092
-0.002085780556388213
-0.06214565786888662
-0.004333214647724647
-0.0801640317318032
-0.05024266504267222
-0.06332693101930084
-0.07729220096732525
-0.07262226858165287
-0.018373883795896977
-0.022927293500535757
-0.037329970207471766
-0.005974136799987507
-0.07638727581311017
-0.009970543999857747
-0.013703911512524947
-0.009557234240459404
-0.03449118823738182
-0.10059045299705863
-0.04936050487129211
-0.07208767173437383
-0.006708025067293022
-0.060974001822794534
-0.008637749528081105
-0.0014094747123509159
-0.00043511957976796555
-0.032914744335710906
-0.0010980077802020926
-0.07919061065563716
-0.07722379195308411
-0.07950684097834335
-0.039421158406981835
-0.03485858063026052
-0.01965371753281468
-0.044071747765200855
-0.09140871824165533
-0.08970194721468382
-0.08533081164066088
-0.003464432116686916
-0.028424648644719157
-0.0037584877495988253
-0.08721709413090807
-0.004618137599451878
-0.041349858774878796
-0.005302081390182812
-0.051109092096986594
-0.0024419790335849408
-0.05493434559233072
-0.0037064599684530136
-0.023602419764793426
-0.0011897281160519568
-0.052432891804111634
-0.0021192232179174817
-0.032360368334761934
-0.013842772077783349
-0.029895087338763757
-0.09722317193490715
-0.014113178192393253
-0.0664021548733183
-0.01597850238708236
-0.04899923377814636
-0.026772782156752818
-0.0035499303439401626
-0.00022387703515573058
-0.026238298027433344
-0.00035777794103436327
-0.0382125188894522
-0.038275813881978725
-0.07108556374530775
-0.01524012756055411
-0.0014910273103973853
-0.05424298054670904
-0.0025477057512588146
-0.011301543713599213
-0.04911647661781845
-0.010837778287357519
-0.03387637936597958
-0.00014888778841748126
-0.03420856668709736
-0.00039832733186674456
-0.03302137149430663
-0.002112808230095302
-0.00023504114745989506
-0.000303163493421985
-0.0008901342169845599
-0.00039051754207352593
-0.030949497273786583
-0.001113001963995768
-0.006107063600667563
-0.0015557956678842729
-0.056371473764127954
-0.003677693121990648
-0.010723695900835556
4.280010657814369e-06
-0.012680591210583451
5.299213244778007e-06
-0.08156764386089985
-0.02755287744214114
-0.01576592226758416
-0.04000776067641063
-0.061003494742148306
-0.0006283853074785158
-0.029753637655729425
-0.0011460926146258375
-0.030352922247568102
-0.0024320969279643763
-9.712714388746693e-05
-0.00019671394237012402
-0.008811685287038675
-0.0181757394913951
-0.02824716983448294
-0.09715925393165493
-0.05329176207039232
-0.06254089779217381
-0.007163941407283014
-0.0019985263641387006
-0.0015729724941084735
-0.09295565779406516
-0.09944298665383405
-0.07694807122819296
-0.024669294524188066
-0.00179238587240653
-0.002320988723193281
-0.058054299751819936
-0.0007020572370752748
-0.009224815761195923
-0.0009674177040389177
-0.08718101890164559
-0.08866150089889405
-0.018699091866045802
-0.0005490545324463313
-0.04358163083428244
-0.00098965386613082
-0.05570633898426584
-0.003182714161958496
-0.001493962586515672
-0.05766308469221006
-0.00454385544449913
-0.03281257015198866
-0.001481635166420034
-0.0005680988190758556
-0.0003878414674936592
-0.08574340717592487
-0.0657129000013402
-0.08235399837390764
-0.04609622708402963
-0.08457469130948979
-0.007578241537032591
-0.08190041509932877
-0.003924274801244338
-0.012617017712924554
-0.07213733114593468
-0.046112931625009825
-0.02011256110418796
-0.03032110777840368
-0.09923854846759898
-0.0167324392687631
-0.023193817194129673
-0.009451533182276758
-2.199133078432964e-05
-6.142195793204539e-06
-7.193757932093534e-05
-0.0281785722896965
-0.003983984560040504
-0.02564029739363504
-8.984254921143795e-05
-0.024272311171670797
-0.054555272950598005
-0.01917023855706094
-0.06384548564551791
-0.06419253261550602
-0.017510364368248148
-0.04199455503345769
-0.012676316459813625
-0.07958312231584158
-0.05615196838551624
-0.07488029174552852
-0.0020205105694009228
-0.03636796904888474
-0.002798647063446697
-0.0939523941085591
-0.06972416564387295
-0.003165649707813216
-0.06710164138639457
-0.0020218586250545234
-0.04941703659322736
-0.043906886928603915
-0.004337193201705607
-0.0029440309511937716
-0.00980780787212902
-0.02642184974996219
-0.006809508295941365
-0.09104596397033964
-0.0031854488511564435
-0.06497296615411792
-0.0019057034342971843
-0.006915295966566489
-0.02753211671375975
9.724296520429652e-06
-0.02354151492656387
-6.407288760021724e-05
-0.0035745628613485046
-8.255634252292284e-05
-0.022120963476683058
-0.00015846786615831735
-0.02250531452357466
-0.022985484815310084
-0.06939473144262773
-0.005288189938831092
-6.12992237461891e-05
-0.02358978534425563
-0.00013947970626629474
-0.028890430177348485
-0.0026859196090411527
-4.836058378808925e-05
-0.00013701186661497938
-0.06594218624862923
-0.044765821323071255
-0.0014025979091971215
-0.049947070519123234
-0.002280764535508202
-0.014163917236510375
-0.0043529669276251
-0.07923864248909591
-0.01018915639370966
-0.06700016347137096
-0.00430454912467974
-0.056275602839910385
-0.0058646632080433
-0.009689702429531913
-0.03755648396312389
-0.008684621031232083
-0.05495393041861823
-0.09034817313851579
-0.08975409971757176
-0.02294365883984294
-0.04435750088424078
-0.015543831489216314
-0.04026079100125782
-0.017225357543496394
-1.9520981403615624e-05
-0.0001582059669315897
-0.041749580182059036
-0.003838972711973326
-0.06520112258553575
-0.005972503955070539
-0.08344350555202823
-0.005107035162272471
-0.047372182982469875
-0.006093212736598113
-0.033542261868910184
-0.08492707302623685
-0.06441429231390203
-0.03441124016453232
-0.03315333455768875
-0.09340153485076479
-0.0005406367951668078
-0.00012142442173180324
-0.019152649663888844
-0.00027789849193074473
-0.05756898461959851
-0.08944114758028517
-0.02973679893411831
-0.05337725558119238
-0.034265968584654756
-0.005349332913851747
2.0813333533380886e-06
-0.008232248564790184
-0.018547839723165788
-0.016288309925252174
6.806609035727649e-06
9.333014958640072e-06
3.1310798553521534e-06
-0.07037845413805988
-0.005417195034761672
-0.005935224661591715
-0.028453589805489767
-0.02288634870660044
-0.005390234227481303
-0.004878708084212295
-0.09989665151254959
-0.05640971330472227
-0.01580149487583396
-0.05055051327017553
-0.013722568560727207
-0.04270863620952392
-0.09726061803843551
-0.042792683668680734
-0.0024149004730798693
-0.05778804446520414
-0.0037845798433645958
-0.09449596934607662
-0.011687141553865753
-0.07636503858240716
-0.016173553894375102
-0.09797876613738608
-0.051435330344871064
-0.006845865246150612
-0.07176252493420023
-0.0102405013782936
-0.04820128526864127
-0.015305903858785838
-0.00010868711456460232
-0.0003357344875698541
-0.08093840532964833
-0.022319193046881357
-0.0025927409056253153
-0.0028912421730073225
-0.07697321297426583
-0.03291897162469902
-0.06558023390690358
-0.09585512351377853
-0.02509024313196227
-0.014912426276590155
-0.026734111758338938
-0.07816951563071728
-0.043147910877020225
-0.018851580830632826
-0.010992407910456478
-0.03252077372312723
-0.007676466866109397
-0.04192219213207809
-0.007643439905245331
-0.020613149110397144
-0.004564350621923748
-0.009110334847655294
-0.07615327881340535
-0.08627491888000514
-0.03419020996309656
-0.003834650648796085
-0.004299512881306705
-0.020039204479498512
-0.0002314709096028713
-0.03790511275407177
-0.0004907238367948101
-0.04883194917288845
-0.008918828812303287
-0.00021773062987523708
-0.0004586518949666886
-0.05452618243947776
-0.026142023801183543
-0.07460243569946978
-0.017563297025777694
-0.006784843830193826
-0.016902626981692304
-0.02743427150032204
-0.0011141519746223065
-0.00025505086282877695
-0.00023453871458314326
-0.09368163486406512
-0.01801485685023891
-0.03191628203772369
-6.154797106569133e-05
-0.00019794544949252826
-0.08026400475930302
-0.006819360154755278
-0.055319460492423686
-0.008189054052227102
-0.06462464169380426
-0.03143144480402773
-0.004492363380735054
-0.07239901753393575
-0.0076451702817916575
-0.08264045035078103
-0.004869732948070177
-0.015429925008978867
-0.003573518228389294
-0.09934353430756483
-0.04847551224300331
-0.09557199904219947
-0.06023331528770636
-0.00044481260658186524
-0.021853683285815287
-0.0008622244613546741
-0.022417284857462295
-0.007873469122902297
-0.05284224745394286
-0.009504799029973227
3.027877120906056e-06
-0.023213318960664198
-3.4173339191621675e-05
-0.022777733521129447
-0.0036466194543386013
8.519545956217224e-06
-2.038991721760487e-05
-0.09235502892535717
-0.017285940021273576
-0.008899536012755652
-0.02538106756251289
-0.05908987305135566
-0.0008845263784134468
-0.03741364679880147
-0.0015197977643971595
-0.029681874846904814
-0.0011752281362145361
-0.0024479501589338513
-0.06358112154646763
-0.05742780481221296
-0.010747100161192869
-0.054452689651851766
-0.011210497106883295
-0.001052298966367895
-0.0001425193758420286
-0.022361452712428103
-0.0003012040105412459
-0.08685369512018316
-0.07490046266344642
-0.07903489780839265
-0.01960853487624184
-0.0028727296639574364
-0.06635129790771847
-0.005196545915080983
-0.05879311396359184
-0.0010664353196096319
-0.007601518898066584
-0.0011588327742745666
-0.031710611711010125
-6.804227740679686e-05
-0.03125913107651855
-0.0002493076672751668
-0.04933506831928313
-0.039955864072305024
-0.0003991733714962712
-0.03920686522057397
-0.0008135403770088708
-0.09883823049803697
-0.02974098034070651
-0.005896824162569252
-0.010757492466283564
-0.049037907255027734
-0.0002318376272283475
-0.02910105098167109
-0.0005636111222368041
-0.010630324475477217
-0.006643222013138998
-0.02345332054186558
-0.03180608504189608
-0.01463732294651294
-0.0007039185549312458
-0.047475437985500565
-0.0014619578380057033
-0.017544635364979484
-0.0006784750407246782
-3.8280123063847876e-05
-7.045227614037617e-05
-0.008481636248287606
-0.016265473703900177
-0.05835431002540696
-0.01860102723333209
-0.031136808670732215
-0.08430173924901405
-0.03570075114197036
-0.045763928327793336
-0.009261034943126493
-0.01492515574402403
-0.0013365056665452886
-9.694838565884932e-05
-0.020040462397055567
-0.00018004637194428023
-0.02167734764273524
-0.021970999599271714
-0.010096579619208792
-0.02565014115510638
-0.04752345302101193
-0.02185691854268737
-0.0001075383557070797
-0.00034701872615497696
-0.02770694790806376
-0.0957276262067507
-0.008658989323129194
-0.0027906189199688666
-0.06965853992006048
-0.00680731965663222
-0.07641128597688694
-0.062023312057149955
-0.030604242102810188
-0.07986089744843788
-0.016027458012737604
-0.06235141408845112
-0.01645132789040752
-0.009254239682811824
-0.07240976543628247
-0.012875678478165797
-0.06187762233486374
-0.03439554581236527
-0.06971347546074867
-0.0005506398324949518
-0.0002135157399880647
-0.022970943179160794
-0.0005811961931091719
-0.013256894379083568
-0.004877122738435159
-0.08433899347040086
-0.01241204550731041
-0.07505484456185144
-0.05839467677584998
-0.0291852026459352