# vtk DataFile Version 1.0
2D Simulation C++
ASCII
DATASET UNSTRUCTURED_GRID
FIELD FieldData 1
NODES 1 2 int
2209 4256

POINTS 2209 double
0.0 0.0 0.0
0.0 1.0 0.0
1.0 1.0 0.0
1.0 0.0 0.0
0.0 0.02500000037252903 0.0
0.0 0.05000000074505806 0.0
0.0 0.07500000298023224 0.0
0.0 0.10000000149011612 0.0
0.0 0.125 0.0
0.0 0.15000000596046448 0.0
0.0 0.17499999701976776 0.0
0.0 0.20000000298023224 0.0
0.0 0.22499999403953552 0.0
0.0 0.25 0.0
0.0 0.2750000059604645 0.0
0.0 0.30000001192092896 0.0
0.0 0.32499998807907104 0.0
0.0 0.3499999940395355 0.0
0.0 0.375 0.0
0.0 0.4000000059604645 0.0
0.0 0.42500001192092896 0.0
0.0 0.44999998807907104 0.0
0.0 0.4749999940395355 0.0
0.0 0.5 0.0
0.0 0.5249999761581421 0.0
0.0 0.550000011920929 0.0
0.0 0.574999988079071 0.0
0.0 0.6000000238418579 0.0
0.0 0.625 0.0
0.0 0.6499999761581421 0.0
0.0 0.675000011920929 0.0
0.0 0.699999988079071 0.0
0.0 0.7250000238418579 0.0
0.0 0.75 0.0
0.0 0.7749999761581421 0.0
0.0 0.800000011920929 0.0
0.0 0.824999988079071 0.0
0.0 0.8500000238418579 0.0
0.0 0.875 0.0
0.0 0.8999999761581421 0.0
0.0 0.925000011920929 0.0
0.0 0.949999988079071 0.0
0.0 0.9750000238418579 0.0
0.02500000037252903 1.0 0.0
0.05000000074505806 1.0 0.0
0.07500000298023224 1.0 0.0
0.10000000149011612 1.0 0.0
0.125 1.0 0.0
0.15000000596046448 1.0 0.0
0.17499999701976776 1.0 0.0
0.20000000298023224 1.0 0.0
0.22499999403953552 1.0 0.0
0.25 1.0 0.0
0.2750000059604645 1.0 0.0
0.30000001192092896 1.0 0.0
0.32499998807907104 1.0 0.0
0.3499999940395355 1.0 0.0
0.375 1.0 0.0
0.4000000059604645 1.0 0.0
0.42500001192092896 1.0 0.0
0.44999998807907104 1.0 0.0
0.4749999940395355 1.0 0.0
0.5 1.0 0.0
0.5249999761581421 1.0 0.0
0.550000011920929 1.0 0.0
0.574999988079071 1.0 0.0
0.6000000238418579 1.0 0.0
0.625 1.0 0.0
0.6499999761581421 1.0 0.0
0.675000011920929 1.0 0.0
0.699999988079071 1.0 0.0
0.7250000238418579 1.0 0.0
0.75 1.0 0.0
0.7749999761581421 1.0 0.0
0.800000011920929 1.0 0.0
0.824999988079071 1.0 0.0
0.8500000238418579 1.0 0.0
0.875 1.0 0.0
0.8999999761581421 1.0 0.0
0.925000011920929 1.0 0.0
0.949999988079071 1.0 0.0
0.9750000238418579 1.0 0.0
1.0 0.9750000238418579 0.0
1.0 0.949999988079071 0.0
1.0 0.925000011920929 0.0
1.0 0.8999999761581421 0.0
1.0 0.875 0.0
1.0 0.8500000238418579 0.0
1.0 0.824999988079071 0.0
1.0 0.800000011920929 0.0
1.0 0.7749999761581421 0.0
1.0 0.75 0.0
1.0 0.7250000238418579 0.0
1.0 0.699999988079071 0.0
1.0 0.675000011920929 0.0
1.0 0.6499999761581421 0.0
1.0 0.625 0.0
1.0 0.6000000238418579 0.0
1.0 0.574999988079071 0.0
1.0 0.550000011920929 0.0
1.0 0.5249999761581421 0.0
1.0 0.5 0.0
1.0 0.4749999940395355 0.0
1.0 0.44999998807907104 0.0
1.0 0.42500001192092896 0.0
1.0 0.4000000059604645 0.0
1.0 0.375 0.0
1.0 0.3499999940395355 0.0
1.0 0.32499998807907104 0.0
1.0 0.30000001192092896 0.0
1.0 0.2750000059604645 0.0
1.0 0.25 0.0
1.0 0.22499999403953552 0.0
1.0 0.20000000298023224 0.0
1.0 0.17499999701976776 0.0
1.0 0.15000000596046448 0.0
1.0 0.125 0.0
1.0 0.10000000149011612 0.0
1.0 0.07500000298023224 0.0
1.0 0.05000000074505806 0.0
1.0 0.02500000037252903 0.0
0.9750000238418579 0.0 0.0
0.949999988079071 0.0 0.0
0.925000011920929 0.0 0.0
0.8999999761581421 0.0 0.0
0.875 0.0 0.0
0.8500000238418579 0.0 0.0
0.824999988079071 0.0 0.0
0.800000011920929 0.0 0.0
0.7749999761581421 0.0 0.0
0.75 0.0 0.0
0.7250000238418579 0.0 0.0
0.699999988079071 0.0 0.0
0.675000011920929 0.0 0.0
0.6499999761581421 0.0 0.0
0.625 0.0 0.0
0.6000000238418579 0.0 0.0
0.574999988079071 0.0 0.0
0.550000011920929 0.0 0.0
0.5249999761581421 0.0 0.0
0.5 0.0 0.0
0.4749999940395355 0.0 0.0
0.44999998807907104 0.0 0.0
0.42500001192092896 0.0 0.0
0.4000000059604645 0.0 0.0
0.375 0.0 0.0
0.3499999940395355 0.0 0.0
0.32499998807907104 0.0 0.0
0.30000001192092896 0.0 0.0
0.2750000059604645 0.0 0.0
0.25 0.0 0.0
0.22499999403953552 0.0 0.0
0.20000000298023224 0.0 0.0
0.17499999701976776 0.0 0.0
0.15000000596046448 0.0 0.0
0.125 0.0 0.0
0.10000000149011612 0.0 0.0
0.07500000298023224 0.0 0.0
0.05000000074505806 0.0 0.0
0.02500000037252903 0.0 0.0
0.5043459732983009 0.5019537629155455 0.0
0.7101055763739166 0.7007899760125882 0.0
0.7013068276773469 0.2935936577176888 0.0
0.2955884989487953 0.7045404293487169 0.0
0.2938678746452652 0.29427432346429455 0.0
0.7751020645536136 0.504612701590886 0.0
0.5009323177565834 0.22053274428923675 0.0
0.49120989909179136 0.7762129434089339 0.0
0.22189726450907427 0.49524238492563166 0.0
0.8270187839140554 0.8194668342191587 0.0
0.8181940795437648 0.16942965457954537 0.0
0.17934805302761983 0.8282128644047723 0.0
0.1699359506139238 0.1787331138404886 0.0
0.6413536769077639 0.5646698475141154 0.0
0.5626432618275805 0.3657175610938333 0.0
0.44081574112252975 0.6335544380532528 0.0
0.361171629505197 0.4265907767425633 0.0
0.8430585354355966 0.6426244948771841 0.0
0.6432165181546429 0.15403873247510172 0.0
0.3494530096047001 0.840828747410361 0.0
0.15410877440035206 0.354382824174518 0.0
0.6471680586263129 0.8402927709921173 0.0
0.8407091790986408 0.35724081152931997 0.0
0.15742691295425998 0.6417700298762019 0.0
0.35746930214169326 0.15567948231989323 0.0
0.6728410917453508 0.4479070353692776 0.0
0.5825486047395891 0.6754481869843941 0.0
0.44618326623840204 0.3188505093758049 0.0
0.32729261146089644 0.5550077230076562 0.0
0.8802962941285759 0.5303471770934136 0.0
0.5303395583691825 0.1121366084943523 0.0
0.46554908320869093 0.8845694482953521 0.0
0.11176658715395003 0.46782678719740173 0.0
0.8961622626763586 0.7409736428700326 0.0
0.740555338813922 0.10176058380575995 0.0
0.2571983944011144 0.8958081169417443 0.0
0.10193386682024154 0.2572531486170366 0.0
0.7440175825714521 0.8818800560235575 0.0
0.11730764184025372 0.7427200551327435 0.0
0.8797608375333056 0.25542818998612343 0.0
0.25473485696526005 0.11742571800979953 0.0
0.7403280732268125 0.6030562694988422 0.0
0.6076438524374681 0.24967663837345644 0.0
0.39376441873855333 0.7467538770930794 0.0
0.25293957731773636 0.3936312531142512 0.0
0.522039328605648 0.5908711685442813 0.0
0.8974200286597249 0.884413968062108 0.0
0.8833051281656983 0.09948504467379256 0.0
0.11462793988879393 0.8982787046933248 0.0
0.09938204195473103 0.11437492105583597 0.0
0.7604821719135608 0.39130242324861714 0.0
0.23787051546253832 0.6089144890944648 0.0
0.39006949106330563 0.23447109501430613 0.0
0.8962965950800711 0.4365585285148952 0.0
0.43525502155814133 0.10116211874584304 0.0
0.5640327302009649 0.8935106659016236 0.0
0.10186404613692619 0.5621299520150758 0.0
0.7868182970019931 0.7411127647073956 0.0
0.7409166053265598 0.21085936932605 0.0
0.25626091718706473 0.7873933986412797 0.0
0.21063196396068457 0.255568783492453 0.0
0.7197404774897628 0.7990034431008787 0.0
0.792979239885008 0.28270780279279 0.0
0.2044301829962863 0.7160904924025979 0.0
0.2864653433138098 0.19952479052730523 0.0
0.5931429531647507 0.49380449663078885 0.0
0.4897355157078973 0.4107610177043561 0.0
0.4243934324462942 0.5448257818384845 0.0
0.6312609461625295 0.7570420308629849 0.0
0.6506530311228468 0.35334891778493965 0.0
0.49526766718227183 0.6911158538892984 0.0
0.3529479873503024 0.6414275793973366 0.0
0.3487261624480856 0.346322212685721 0.0
0.9150050456992955 0.8146175320161623 0.0
0.8140282137437557 0.08254297404743158 0.0
0.18403333476348235 0.9154655944352804 0.0
0.08259966988548713 0.18344479539628122 0.0
0.826856074605813 0.9090047545217504 0.0
0.08958833559059796 0.8268098074174209 0.0
0.9078834177333311 0.170410456693919 0.0
0.17096560204457445 0.08977501726809783 0.0
0.6969880757696112 0.5169990995698626 0.0
0.6477260636424389 0.6473918301233039 0.0
0.5113181110650067 0.3023966290580361 0.0
0.29912438462060537 0.4826955776528672 0.0
0.9160281015400646 0.6067474481102618 0.0
0.6119205617747726 0.08410537464834231 0.0
0.39453361898983413 0.91903220489032 0.0
0.08211258576468489 0.38561094208853597 0.0
0.6626619582338593 0.9176454168941682 0.0
0.07982029465280141 0.6607547123999279 0.0
0.9171857991406871 0.3368254819542143 0.0
0.3367237758169498 0.07960132169609277 0.0
0.8204309249029479 0.4362175138684493 0.0
0.5661897942817871 0.815070629731463 0.0
0.4345939134486474 0.17569303528488509 0.0
0.17777140711270326 0.5632118696498867 0.0
0.43261582481102806 0.4568033799576659 0.0
0.816898090178762 0.5694230734740677 0.0
0.567071339243016 0.18006909243623231 0.0
0.4292159180683616 0.817426824938543 0.0
0.18011203148512647 0.4301837270421713 0.0
0.7700402179469918 0.6666186728807407 0.0
0.6666968133240049 0.22473083989213063 0.0
0.3303906386919391 0.7740795217489062 0.0
0.2251155301465794 0.3298586361389858 0.0
0.9275754691058848 0.6831960420093535 0.0
0.6833026123150094 0.0709576817210063 0.0
0.31128649156161425 0.9252427757191137 0.0
0.07257225848963667 0.3106994880997571 0.0
0.5601259284983399 0.7387229234526712 0.0
0.6009441883085952 0.4183640944334425 0.0
0.37421369150287226 0.4971197118369774 0.0
0.7327900908409256 0.4578281011151663 0.0
0.4544545109214945 0.26129009701898326 0.0
0.26592522639713695 0.5405369291529255 0.0
0.5859224853451187 0.6131122844591098 0.0
0.4171286473654897 0.385551794217589 0.0
0.5708342460415187 0.5408465761425628 0.0
0.5471095760097217 0.44759224163774086 0.0
0.9322015354759696 0.49522376496091786 0.0
0.4963583447791622 0.06504151932928066 0.0
0.5006719032243115 0.931075582699938 0.0
0.06523580474458006 0.5013028861820766 0.0
0.8435892360880034 0.4976692734391369 0.0
0.49579283098803795 0.1525578153972955 0.0
0.49775911755016955 0.8410012910968688 0.0
0.15298900507119742 0.5019446638207185 0.0
0.843269004316213 0.6971227411362702 0.0
0.6968360607489055 0.15446740832444086 0.0
0.29989882442557897 0.8429726154700069 0.0
0.15490525014688114 0.29995020604897527 0.0
0.7702965429859917 0.8363772928195932 0.0
0.8337885580905317 0.22753731742213995 0.0
0.16389202800066818 0.770686503019027 0.0
0.22703908261867298 0.1626909714104883 0.0
0.7604677337434388 0.3268021642127002 0.0
0.2367803191410191 0.6725573355710945 0.0
0.3251737370781319 0.235696133253923 0.0
0.6382328973861199 0.30051836271596316 0.0
[...]
POINT_DATA 2209
SCALARS Psi double
LOOKUP_TABLE default
0.0
0.0
0.0
0.0
0.0
0.0
0.0
0.0
0.0
0.0
0.0
0.0
0.0
0.0
0.0
0.0
0.0
0.0
0.0
0.0
0.0
0.0
0.0
0.0
0.0
0.0
0.0
0.0
0.0
0.0
0.0
0.0
0.0
0.0
0.0
0.0
0.0
0.0
0.0
0.0
0.0
0.0
0.0
0.0
0.0
0.0
0.0
0.0
0.0
0.0
0.0
0.0
0.0
0.0
0.0
0.0
0.0
0.0
0.0
0.0
0.0
0.0
0.0
0.0
0.0
0.0
0.0
0.0
0.0
0.0
0.0
0.0
0.0
0.0
0.0
0.0
0.0
0.0
0.0
0.0
0.0
0.0
0.0
0.0
0.0
0.0
0.0
0.0
0.0
0.0
0.0
0.0
0.0
0.0
0.0
0.0
0.0
0.0
0.0
0.0
0.0
0.0
0.0
0.0
0.0
0.0
0.0
0.0
0.0
0.0
0.0
0.0
0.0
0.0
0.0
0.0
0.0
0.0
0.0
0.0
0.0
0.0
0.0
0.0
0.0
0.0
0.0
0.0
0.0
0.0
0.0
0.0
0.0
0.0
0.0
0.0
0.0
0.0
0.0
0.0
0.0
0.0
0.0
0.0
0.0
0.0
0.0
0.0
0.0
0.0
0.0
0.0
0.0
0.0
0.0
0.0
0.0
0.0
0.0
0.0
-0.05933157335525861
-0.09030728767099154
-0.013756119666647137
-0.056632537981795024
-0.01351923788096693
-0.03499416361283676
-0.011965020989208186
-0.09249989973346341
-0.023720239071658114
-0.06910258366618696
-0.0015123924803282164
-0.0377843729951456
-0.002177283602250037
-0.07185176806547272
-0.03185077465832346
-0.07687369025948812
-0.03429290195761893
-0.040506223141282105
-0.004611697618058228
-0.0692994057915943
-0.007265778344412341
-0.09161139030515288
-0.007367836689264361
-0.021075239952929984
-0.005051974688600315
-0.04080308304053542
-0.09530939734419598
-0.02363417495424012
-0.0476271531757703
-0.014018860345653337
-0.0032401369436494782
-0.0725306805837319
-0.007111960412725512
-0.03216736599358224
-0.0011331766453603776
-0.051113016935746984
-0.0018540519424289244
-0.07435539281320223
-0.017033905101593735
-0.00163517785226749
-0.0018619300639125594
-0.0647347867005706
-0.013488667795814736
-0.07857430559051436
-0.019016220712305167
-0.07865991657201406
-0.04196092986071805
-9.878737744337334e-05
-0.027561958758034626
-0.00029117651502499973
-0.019616013626954514
-0.036075530033733115
-0.01192373963663572
-0.005623968479536296
-0.002609892765668703
-0.07370805426559446
-0.00824634398762006
-0.07734407068093928
-0.005232938668240689
-0.05295852511826519
-0.006391745190697741
-0.09302363903718076
-0.006742338252876631
-0.036406989480123775
-0.0062101981476028615
-0.05797733319785626
-0.04016128513596299
-0.06071496877638345
-0.10079225368777031
-0.025324206557246768
-0.09057520600238173
-0.06283914775948803
-0.022491288975346975
-0.030463422047236198
-0.00030731621196972543
-0.039928482954058576
-0.0005986423222194499
-0.05590913677941913
-0.015067840558515448
-0.00026011078008851324
-0.0005211553648313824
-0.05306102155732407
-0.08934455999897402
-0.022110021266174323
-0.03413971699785901
-0.01151258164368103
-0.0015582596775176563
-0.05588227768650376
-0.0027628209985537085
-0.062474227530138385
-0.007059761913967575
-0.001568375399058239
-0.0012863507734363847
-0.016174605389652007
-0.09485506102456456
-0.007437143719702001
-0.020902742205340004
-0.04569560384552656
-0.03608321313894279
-0.007676562535818219
-0.08219072344412572
-0.0135135162607
-0.07054013791894409
-0.009025025247041503
-0.06763410622453904
-0.01157324329523841
-0.013727436257684978
-0.0008202338931782172
-0.04863167212341337
-0.0014396825022927296
-0.09912311225916733
-0.04065059937789134
-0.04645057479012157
-0.03424564475469292
-0.01619028865462725
-0.03522967581802607
-0.08515923146243289
-0.03243752840682467
-0.06947817254268493
-0.048509548937775274
-0.00364273853134927
-0.001178414737231753
-0.05346393412943053
-0.003100955464697325
-0.018697713341831734
-0.005918130508847597
-0.0859099105530312
-0.013632277624191828
-0.04982017898876568
-0.003617362159798115
-0.06172304512905022
-0.005299755436188162
-0.08175213015599544
-0.0025108234578487053
-0.029984936938057302
-0.0029568192097765705
-0.012430416728312986
-0.04087496254291705
-0.010006244661506868
-0.01836018596979937
-0.07028666083035402
-0.02011235235801123
-0.05803961435044695
-0.0018848100895143937
-0.004978973281172627
-0.0012038190703264767
-0.06270956040005075
-0.0841701811731436
-0.017238060975388336
-1.065132724309242e-05
-0.025569297075814634
1.4927343289926782e-05
-0.06989663624575963
-0.004603432790617571
-0.0008924918746877537
-0.04895099794722071
-0.0019610486869731784
-0.016292201875804824
-0.0003244825883073012
-0.03987565413843396
-0.0005853665448846019
-0.04864506714729814
-0.006294117058679097
-0.0003010930075449718
-0.0004561353136978967
-0.05934675159674597
-0.0020904575812388457
-0.049119898649593714
-0.0030206245556862457
-0.08791308753214139
-0.004627396424770238
-0.022486766162673224
-0.0040647831320488196
-0.08183020011856766
-0.05884804543041511
-0.0311772681921264
-0.049809553637540124
-0.02160466868652747
-0.09773102324308264
-0.027924495774342604
-0.07348488628469
-0.014633500832455432
-0.02383189888123156
-0.020936229116362486
-3.406368607779825e-05
-0.030430126926361985
-0.0001281115320035411
-0.04199850954867183
-0.010443368143068753
-3.943521598791236e-05
-0.00015913704226018147
-0.08930147341492126
-0.0285283301674224
-0.019273429220161373
-0.04875685713634787
-0.08700672048213061
-0.025332099755103022
-0.00423566504849068
-0.07379879461442333
-0.007672077801152344
-0.08860932736323139
-0.00815589779333116
-0.05039646868047345
-0.00862085528585913
-0.0978342960390443
-0.05406340838558817
-0.009135630032104217
-0.07594233483068073
-0.013386149219427835
-0.05082089441660057
-0.005232405930683407
-0.0005170490441632943
-0.0006186454110993246
-0.050867268015455644
-0.00043917196449493615
-0.03495306116323566
-0.0008252108822675563
-0.015465442048372604
-0.008692361194032222
-0.02737761762218335
-0.08319804748468303
-0.07809563468621519
-0.003158896694444978
-0.042815751184417584
-0.003980301388012508
-0.01935712927975353
-0.050508983143272
-0.015487682865368994
-0.005358237578970348
-0.08086130129850516
-0.0032624013533246276
-0.012547402951663659
-0.09831287979932321
-0.07386392832822314
-0.09652362798520257
-0.05547341670524773
-0.07152583771504972
-0.008921727660218214
-0.03146123339285318
-0.00687441889545741
-0.038412797155538254
-0.024071046070994796
-0.026571039587133555
-0.0014465750084094807
-0.0007124588560494924
-0.04629792826751589
-0.0024679130756104194
-0.0711116926535992
-0.025214854320890562
-0.001092192885019679
-0.001565084222032538
-0.009369823767553175
-0.0032077573287493106
-0.0758710166882917
-0.008363577877211825
-0.02443971578465924
-0.011871752996183541
-0.030381057333627014
-0.04783643809839973
-0.06177348998026305
-0.03145081124858991
-0.002499518467137955
-0.061991304607182635
-0.00400491673974297
-0.006559605103371294
-0.00021526219475674787
-0.031022076784476667
-0.00032042950813015075
-0.003593024499246997
-0.00032141683474380895
-0.03642506280463104
-0.0007413253868437376
-0.031591450184129635
-0.09580214886719086
-0.03580297626607318
-0.048496497405755803
-0.05459596849571836
-0.09994614392052184
-0.04962368118867575
-0.0010012247369790487
-0.044426954970163794
-0.001608447927458403
-0.08275966144748097
-0.009650001629609127
-0.05940824962724436
-0.010910524889570568
-0.054599485284380044
-0.0002861375360440773
-0.025130143599795377
-0.0005964944991255709
-0.06491831830021715
-0.025059162508562972
-0.09459200960594204
-0.07001178544842848
-0.03749748637296803
-0.04222016032127558
-0.0963073908315538
-0.03246815386982812
-0.03915620370034664
-0.06665817228864736
-0.04172483344447469
-0.04366929241037371
-0.016580680189920434
-0.020664577928731047
-0.030991269560141282
-0.0829146528822346
-0.09168944452374234
-0.010588954563943667
-7.351405136882985e-05
-0.030708950475209218
-0.0001659408296541126
-0.03986941778302771
-0.005045160224189652
-8.410537144930654e-05
-0.00020081035986280267
-0.04190493373844123
-0.05116297452828203
-0.054920134350202675
-0.0117658292825833
-0.01827814982222895
-0.024009667747641877
-0.0059674592277071375
-0.08697779553629477
-0.01216056531921556
-0.08086998155146977
-0.014980101114779088
-0.0037442580717546464
-0.0029566975345101188
-0.03764306494429585
-0.0019051770190040133
-0.0004375974970813891
-0.0003643318868922887
-0.0032016402432877965
-0.0005319757740369978
-0.03515794431315729
-0.0010509178057995971
-0.012508211049754477
-0.005088066108011928
-0.08694310566130385
-0.013976898515720194
-0.029102670819618526
-0.010070910921895701
-0.09158407510032071
-0.005488479920745214
-0.01839820210004957
-0.013185816327910358
-0.07307527966313991
-0.01673738532444142
-0.06596558494502341
-0.01576363568181967
-0.0007642649500532948
-0.0011076219297916224
-0.08477152021233486
-0.03287692839573303
-0.0006420877388975881
-0.04529092299676949
-0.0011100542275256611
-0.02655070724421157
-0.0030497298751262295
-0.06699060135385983
-0.005127161122338807
-0.015042352161481228
7.352229333574636e-06
-0.023384919166744553
-2.4018210612117108e-05
-0.006570495826738498
-0.02749323823293141
-1.8169488482853964e-05
1.1441476700442225e-05
-0.08202033016397234
-0.05774760476943224
-0.006036523353723505
-0.06679963980223727
-0.008416723013542255
-0.07141377372192959
-0.011928672862065219
-0.0018878013295561549
-0.0018026242301697934
-0.09059122985657324
-0.019113616441945654
-0.05997872277480349
-0.017896067793193877
-0.010962133437110853
-0.019610216686606122
-0.039731978685958305
-0.02725417928643833
-0.023300451526056483
-0.00880271324123227
-0.020754693868952175
-0.010660163501217795
-0.0019986555049042237
-0.0629192264931475
-0.004072908788679044
-0.08036730917149011
-0.0494350506157544
-0.06307791747946555
-0.0766739291143182
-0.07261356750441283
-0.01810927597885998
-0.022370850041635935
-0.037826571628130495
-0.005834815238016081
-0.07633200679907803
-0.009584753050499434
-0.013710851788437292
-0.009285463920203928
-0.03383106995442075
-0.10053321507610144
-0.04870094044241506
-0.07232340780171982
-0.006643926372049049
-0.060528782882285206
-0.0083686158568532
-0.0015556091069887298
-0.00039719791347582673
-0.03506639002527728
-0.0009864452974047923
-0.07848450810444016
-0.07640718604371986
-0.07882713745657416
-0.0385748913526291
-0.034491096486490715
-0.01919360750048474
-0.043200378519221046
-0.09081452870541581
-0.08916333206171098
-0.0860401348839801
-0.003492674281855723
-0.027810518569849854
-0.0035976724244693187
-0.08765624338668887
-0.004582009193746406
-0.04076873499218426
-0.0051156184641496455
-0.051643846245958316
-0.002421054856299734
-0.05476160940763296
-0.0035273271266479857
-0.02443733081440947
-0.001163435049700796
-0.05282888201199122
-0.001995105315886828
-0.0323000208747203
-0.013499097802394328
-0.029214006630213927
-0.09687122155571204
-0.013939071100486006
-0.06572981346327626
-0.015497401805982693
-0.048516416018751805
-0.026270732674844057
-0.003911764544925748
-0.00021093456061865387
-0.02802548689914571
-0.0003205571084870451
-0.03747912815105514
-0.037774835875272444
-0.07026514802545411
-0.01582631897403068
-0.0014510289040193533
-0.05508958105369306
-0.0023979092064795923
-0.011226332531496736
-0.048437526956397255
-0.010478603090043526
-0.03480751749460668
-0.00015375612477938069
-0.034078548848679474
-0.0003688374652730455
-0.03496946621232354
-0.0019300343272582367
-0.00025773227983036715
-0.0002753619239883052
-0.0010087523330635615
-0.0003578230963104126
-0.03280113346434056
-0.0010147890281753627
-0.006406060731041793
-0.0014957244620259604
-0.05788307426486121
-0.0034685696887397583
-0.010709181816764526
3.2672526688781426e-06
-0.013710472405629533
4.79745616934844e-06
-0.08158249619599266
-0.027333351985782284
-0.01533721049182407
-0.03927590334442779
-0.06182355238858966
-0.0006408000910894438
-0.029274667837535157
-0.0010820608115429207
-0.032372542834454905
-0.002243812255758531
-0.00010863883337131141
-0.0001721805234453541
-0.008545736755195038
-0.017695617747961506
-0.028418821740016163
-0.09708478213150233
-0.0525898127538237
-0.0638564724228099
-0.006900848500723468
-0.002070391017846699
-0.0014810147875077655
-0.09297191889959712
-0.0996152188453777
-0.07775836128255197
-0.024109776360459027
-0.0018270672888085484
-0.0022106423969539485
-0.05948646485077032
-0.0007379231000986407
-0.0088695512650638
-0.0009102719021725919
-0.08701894044237739
-0.08793790972563696
-0.019551370719853037
-0.0005384725208778275
-0.04432114730348007
-0.0009247688888778697
-0.05494594234711012
-0.003351746299119878
-0.00140035628183721
-0.05919733664421145
-0.0042513646543622646
-0.034837589547293
-0.0013703182861602241
-0.0006232254553327232
-0.0003545781451930131
-0.08504425441384245
-0.06477776608411012
-0.08200382058919424
-0.0453631273464917
-0.0840715042980487
-0.0077608644807928605
-0.08267758772677883
-0.0037857779156548156
-0.012216014065886243
-0.07193541383030841
-0.04552084193701251
-0.01971052493537283
-0.02963992711175677
-0.09919353649844885
-0.01640888646672435
-0.022565254189093477
-0.010232887871954496
-2.3742145427073437e-05
-9.331172628260329e-06
-6.297718479945883e-05
-0.029883909893092024
-0.0036356582291547966
-0.026634187535491814
-8.223009202305029e-05
-0.02398521071363128
-0.0537238771289933
-0.018702478719316313
-0.06295800476758787
-0.06346644019563548
-0.01741814531527522
-0.0413035842886719
-0.012334133493630587
-0.07878651079495314
-0.05529725667165934
-0.07563650044228842
-0.002023186116837199
-0.03587318080687218
-0.002670745598218355
-0.09412915896668293
-0.07023015822331112
-0.0031353398991789396
-0.06780239368181665
-0.002013167363740869
-0.04897662601032805
-0.04346935719304988
-0.004158861945721162
-0.002823733068855678
-0.009886129034915387
-0.02588278634885817
-0.00660943727007749
-0.0907298366000895
-0.00329275165571521
-0.06627314051626637
-0.0018136494506796367
-0.006600505169810484
-0.02856373982104407
5.812961976311827e-06
-0.02339490423759901
-5.705965289357018e-05
-0.003867644249869671
-7.763208375605564e-05
-0.023999693685953803
-0.00014625549413138907
-0.022195883702087006
-0.022441641109242915
-0.06859315685198879
-0.005824983062955731
-5.8560894669822325e-05
-0.02538120282586502
-0.00012698288729549363
-0.030604380279889275
-0.0024707042225169513
-5.4308923500411846e-05
-0.00012284763851262798
-0.06542964657672183
-0.04544062002509324
-0.001395301673940145
-0.049873602386412606
-0.002162379111519131
-0.01447780831608489
-0.004208646722495038
-0.07977771952017416
-0.00987437553379393
-0.06757384179099166
-0.00426716918020165
-0.05591104018062678
-0.005653041146609123
-0.009682087648428725
-0.0369128772607116
-0.008406712544637302
-0.05463952544968304
-0.09095148963988829
-0.09040226872020377
-0.022785809886272743
-0.043576595361671855
-0.015106675823199123
-0.04130860170282708
-0.016815781485229726
-2.4706146834261974e-05
-0.00014553944455190134
-0.042369759512484444
-0.003775292877093254
-0.06523646725832902
-0.005731399458600315
-0.0839281737319355
-0.005092445343280885
-0.04682511530321508
-0.005890630586506024
-0.03291800612845921
-0.08418368194628026
-0.06354115212970478
-0.03380967813338014
-0.032499347073443874
-0.09371085410049933
-0.000615264854044215
-0.0001126568717602375
-0.02096454745547188
-0.00025332735690293805
-0.05669095993582486
-0.08974998212056033
-0.029119698210890308
-0.05254156533240037
-0.0335816159663564
-0.0048799728595526354
1.4154263422482426e-06
-0.009054395315412442
-0.019758615490063917
-0.016911882878425172
6.468389489960554e-06
8.17763889753176e-06
2.3074510147545407e-06
-0.06945698150088965
-0.005454339607014247
-0.00599604727812476
-0.02777335406751317
-0.02229892614360639
-0.005181225140902536
-0.0046964922030711155
-0.09968911855258891
-0.055864093890591854
-0.015631170130155213
-0.049794260942158705
-0.013382698299689928
-0.04225617989983108
-0.09700678592818143
-0.043492624259504384
-0.002370641202262711
-0.05777755262325949
-0.003602932607147766
-0.09395349095697064
-0.01148893315049263
-0.07582367212886612
-0.015705390616752746
-0.09756635112427914
-0.051661268888542354
-0.006738746576677786
-0.07161353384722344
-0.009876861380807239
-0.049563645165572594
-0.01481985934402418
-0.00011735319506923798
-0.0003098080907764341
-0.08170680296392697
-0.021735174695959137
-0.002661343116087474
-0.002754351687676696
-0.07651590554358954
-0.03258224124147921
-0.0647063222248996
-0.09614630056375502
-0.02467022669681429
-0.014606896468824538
-0.026056772795274023
-0.07735290733230502
-0.04310481570992652
-0.0187864096072936
-0.010689889596328467
-0.03181192210136647
-0.007644894045507332
-0.0412067716050014
-0.007359480614738255
-0.021014216358882204
-0.0044275981987049315
-0.008808260412593097
-0.07553873166417713
-0.08692352277363102
-0.033699604852575775
-0.003852963112687713
-0.004135771283093417
-0.02105581349609597
-0.0002277245042602853
-0.03850408260698484
-0.0004528076340206908
-0.05022598368965061
-0.008496478254049132
-0.00023152510849013132
-0.0004311938272030404
-0.05396569722061327
-0.025635463281868727
-0.0737409218368333
-0.017750368436322217
-0.006576628190560752
-0.01637890703255467
-0.029335664375362516
-0.001033599359394408
-0.00028492691130292127
-0.0002116493598144494
-0.0933373472574196
-0.01897375267658757
-0.03251636361481314
-6.414814202492415e-05
-0.00018075567449504342
-0.08065762536988198
-0.006765700259575942
-0.054801047805239186
-0.007915330154346843
-0.06378826733060894
-0.032016642590592045
-0.004377128947511708
-0.07265311682884773
-0.00734052608613945
-0.0835033733772343
-0.004975129512032832
-0.015052327978039725
-0.003425225849405114
-0.09937681597006282
-0.04765972899948216
-0.0959643896142518
-0.06123099365923871
-0.0004596985462202198
-0.021214868371206938
-0.0008149478096691474
-0.02185546198273595
-0.008299191689927652
-0.05404423037164416
-0.010295105147200093
5.882439546935206e-07
-0.024088571255219664
-3.193780768229883e-05
-0.024284047616664837
-0.003369511792648182
7.577729961196481e-06
-1.8490891964017977e-05
-0.09172841006448769
-0.01729377564609814
-0.008593468604396524
-0.024732984269607326
-0.05998149356436515
-0.0008945958994183268
-0.0370054140169674
-0.0014279645778623395
-0.029402248515770474
-0.001108147585500401
-0.00226826702545885
-0.06371433706340736
-0.05735990980517017
-0.010666459774013703
-0.05376564820835336
-0.010861007904217661
-0.001131306097665177
-0.00013328401754291808
-0.02396080101186347
-0.0002796043460106248
-0.08679972226112923
-0.07529898673836286
-0.07916762044108058
-0.02007017066421152
-0.002761291759451512
-0.06691325147355193
-0.004940529378342807
-0.060175575318890284
-0.0011293985456180351
-0.007228980128045776
-0.001082729958500515
-0.032593886777281735
-7.494406455049255e-05
-0.03114548835152002
-0.00022826671774659791
-0.04842519220667509
-0.04091996834690906
-0.000399739950015324
-0.03908758097698218
-0.0007512245995361509
-0.09903852591755896
-0.03006793825378008
-0.005764303526106245
-0.010428289947312201
-0.04984837199557391
-0.00023850994513321472
-0.028662387204203846
-0.000527454100507639
-0.010772937531160008
-0.006415855965950231
-0.02285938647079294
-0.03205467519015649
-0.015360592661085849
-0.0006747642655462398
-0.048261602242749425
-0.0013550457908788713
-0.01907640924999365
-0.0006174110758084639
-4.3355684154207856e-05
-6.458076419237145e-05
-0.00828499703463747
-0.015766175995112135
-0.05752097723266572
-0.01815028689639253
-0.030424147314911137
-0.08389561511258768
-0.035012247192115216
-0.04584038568446996
-0.009091077283379883
-0.014460229517637932
-0.0014823528881667428
-9.312455633816427e-05
-0.021730312117372103
-0.0001684213013834556
-0.021135757918965097
-0.022051067698634436
-0.009800442744891292
-0.024989014340669413
-0.04852181308853897
-0.02136972573448414
-0.00011427327381179101
-0.0003222233363474638
-0.027400856293450335
-0.09597022907207164
-0.008927011793942547
-0.002667875930595985
-0.07043424926722323
-0.00654048469501458
-0.0756130575183509
-0.06208066003097153
-0.03004913330973171
-0.07970006210421945
-0.015878316965133945
-0.061635938316659866
-0.01595087425547194
-0.009116162552904294
-0.07197189623871103
-0.012440886619470605
-0.06095167963461122
-0.03365108832136923
-0.06884250354326206
-0.0006269875070545893
-0.00019365552559476234
-0.024813683451577244
-0.0005283912290618391
-0.01347468914328307
-0.004726176803229595
-0.08474986941125756
-0.011950433172401959
-0.0743396823521002
-0.05745790309977149
-0.02855084440795669
-0.015248021661590255
-0.019422565849568686