# vtk DataFile Version 1.0
2D Simulation C++
ASCII
DATASET UNSTRUCTURED_GRID
FIELD FieldData 1
NODES 1 2 int
2209 4256

POINTS 2209 double
0.0 0.0 0.0
0.0 1.0 0.0
1.0 1.0 0.0
1.0 0.0 0.0
0.0 0.02500000037252903 0.0
0.0 0.05000000074505806 0.0
0.0 0.07500000298023224 0.0
0.0 0.10000000149011612 0.0
0.0 0.125 0.0
0.0 0.15000000596046448 0.0
0.0 0.17499999701976776 0.0
0.0 0.20000000298023224 0.0
0.0 0.22499999403953552 0.0
0.0 0.25 0.0
0.0 0.2750000059604645 0.0
0.0 0.30000001192092896 0.0
0.0 0.32499998807907104 0.0
0.0 0.3499999940395355 0.0
0.0 0.375 0.0
0.0 0.4000000059604645 0.0
0.0 0.42500001192092896 0.0
0.0 0.44999998807907104 0.0
0.0 0.4749999940395355 0.0
0.0 0.5 0.0
0.0 0.5249999761581421 0.0
0.0 0.550000011920929 0.0
0.0 0.574999988079071 0.0
0.0 0.6000000238418579 0.0
0.0 0.625 0.0
0.0 0.6499999761581421 0.0
0.0 0.675000011920929 0.0
0.0 0.699999988079071 0.0
0.0 0.7250000238418579 0.0
0.0 0.75 0.0
0.0 0.7749999761581421 0.0
0.0 0.800000011920929 0.0
0.0 0.824999988079071 0.0
0.0 0.8500000238418579 0.0
0.0 0.875 0.0
0.0 0.8999999761581421 0.0
0.0 0.925000011920929 0.0
0.0 0.949999988079071 0.0
0.0 0.9750000238418579 0.0
0.02500000037252903 1.0 0.0
0.05000000074505806 1.0 0.0
0.07500000298023224 1.0 0.0
0.10000000149011612 1.0 0.0
0.125 1.0 0.0
0.15000000596046448 1.0 0.0
0.17499999701976776 1.0 0.0
0.20000000298023224 1.0 0.0
0.22499999403953552 1.0 0.0
0.25 1.0 0.0
0.2750000059604645 1.0 0.0
0.30000001192092896 1.0 0.0
0.32499998807907104 1.0 0.0
0.3499999940395355 1.0 0.0
0.375 1.0 0.0
0.4000000059604645 1.0 0.0
0.42500001192092896 1.0 0.0
0.44999998807907104 1.0 0.0
0.4749999940395355 1.0 0.0
0.5 1.0 0.0
0.5249999761581421 1.0 0.0
0.550000011920929 1.0 0.0
0.574999988079071 1.0 0.0
0.6000000238418579 1.0 0.0
0.625 1.0 0.0
0.6499999761581421 1.0 0.0
0.675000011920929 1.0 0.0
0.699999988079071 1.0 0.0
0.7250000238418579 1.0 0.0
0.75 1.0 0.0
0.7749999761581421 1.0 0.0
0.800000011920929 1.0 0.0
0.824999988079071 1.0 0.0
0.8500000238418579 1.0 0.0
0.875 1.0 0.0
0.8999999761581421 1.0 0.0
0.925000011920929 1.0 0.0
0.949999988079071 1.0 0.0
0.9750000238418579 1.0 0.0
1.0 0.9750000238418579 0.0
1.0 0.949999988079071 0.0
1.0 0.925000011920929 0.0
1.0 0.8999999761581421 0.0
1.0 0.875 0.0
1.0 0.8500000238418579 0.0
1.0 0.824999988079071 0.0
1.0 0.800000011920929 0.0
1.0 0.7749999761581421 0.0
1.0 0.75 0.0
1.0 0.7250000238418579 0.0
1.0 0.699999988079071 0.0
1.0 0.675000011920929 0.0
1.0 0.6499999761581421 0.0
1.0 0.625 0.0
1.0 0.6000000238418579 0.0
1.0 0.574999988079071 0.0
1.0 0.550000011920929 0.0
1.0 0.5249999761581421 0.0
1.0 0.5 0.0
1.0 0.4749999940395355 0.0
1.0 0.44999998807907104 0.0
1.0 0.42500001192092896 0.0
1.0 0.4000000059604645 0.0
1.0 0.375 0.0
1.0 0.3499999940395355 0.0
1.0 0.32499998807907104 0.0
1.0 0.30000001192092896 0.0
1.0 0.2750000059604645 0.0
1.0 0.25 0.0
1.0 0.22499999403953552 0.0
1.0 0.20000000298023224 0.0
1.0 0.17499999701976776 0.0
1.0 0.15000000596046448 0.0
1.0 0.125 0.0
1.0 0.10000000149011612 0.0
1.0 0.07500000298023224 0.0
1.0 0.05000000074505806 0.0
1.0 0.02500000037252903 0.0
0.9750000238418579 0.0 0.0
0.949999988079071 0.0 0.0
0.925000011920929 0.0 0.0
0.8999999761581421 0.0 0.0
0.875 0.0 0.0
0.8500000238418579 0.0 0.0
0.824999988079071 0.0 0.0
0.800000011920929 0.0 0.0
0.7749999761581421 0.0 0.0
0.75 0.0 0.0
0.7250000238418579 0.0 0.0
0.699999988079071 0.0 0.0
0.675000011920929 0.0 0.0
0.6499999761581421 0.0 0.0
0.625 0.0 0.0
0.6000000238418579 0.0 0.0
0.574999988079071 0.0 0.0
0.550000011920929 0.0 0.0
0.5249999761581421 0.0 0.0
0.5 0.0 0.0
0.4749999940395355 0.0 0.0
0.44999998807907104 0.0 0.0
0.42500001192092896 0.0 0.0
0.4000000059604645 0.0 0.0
0.375 0.0 0.0
0.3499999940395355 0.0 0.0
0.32499998807907104 0.0 0.0
0.30000001192092896 0.0 0.0
0.2750000059604645 0.0 0.0
0.25 0.0 0.0
0.22499999403953552 0.0 0.0
0.20000000298023224 0.0 0.0
0.17499999701976776 0.0 0.0
0.15000000596046448 0.0 0.0
0.125 0.0 0.0
0.10000000149011612 0.0 0.0
0.07500000298023224 0.0 0.0
0.05000000074505806 0.0 0.0
0.02500000037252903 0.0 0.0
0.5069933595185718 0.5040725947166057 0.0
0.7127486286705053 0.7034478217418086 0.0
0.7036280657220227 0.2959504369181305 0.0
0.29859505329495173 0.7072510969115097 0.0
0.2959554872889497 0.29695408752044905 0.0
0.7771818341661224 0.5068259247280822 0.0
0.5036362330424752 0.22313618675214678 0.0
0.49344600212108536 0.7787876099557217 0.0
0.22427250996088102 0.49742344641132547 0.0
0.8298977515781641 0.8221683680510807 0.0
0.8208625330735407 0.1723570798923868 0.0
0.18170951347672323 0.8308923305431277 0.0
0.1723142020507737 0.18099959844157074 0.0
0.6443905950209903 0.5669098410349411 0.0
0.5651344550045848 0.36787039125992654 0.0
0.4432996544942345 0.6357547514253234 0.0
0.363605467937593 0.42895799740704305 0.0
0.8459408501087871 0.6451267031627057 0.0
0.6452445404003571 0.15674975545394543 0.0
0.35150690261965417 0.8428698634952753 0.0
0.15679670772218177 0.35638872948628353 0.0
0.649672974939723 0.8424873507502825 0.0
0.8429691487672476 0.3596298729159876 0.0
0.15970326650050093 0.6443156223147558 0.0
0.35960896252377733 0.158578184686346 0.0
0.6749453957542655 0.45021958336224993 0.0
0.584975779399812 0.6775180257793009 0.0
0.44828260530895503 0.3213202111800112 0.0
0.32974474063464776 0.557195340242587 0.0
0.8833425554676754 0.5328754470879458 0.0
0.532661315531457 0.11469814556906363 0.0
0.468251718806593 0.8868974803559694 0.0
0.1143708543801285 0.4701551505384572 0.0
0.8988569686637774 0.7433131143311033 0.0
0.7430490502106044 0.10414873394411867 0.0
0.26002877382998385 0.8984746400911143 0.0
0.10456089880252746 0.25948505502131586 0.0
0.7464382073241183 0.8841748777400152 0.0
0.12023462513203348 0.7456477618244164 0.0
0.8826774750354203 0.2576486597951492 0.0
0.25728264944648227 0.11976546007120958 0.0
0.7427300357178841 0.6053182450698144 0.0
0.6102040322567438 0.2522592050651258 0.0
0.39667668371022574 0.7491247194503434 0.0
0.2555570429254966 0.39567285445685096 0.0
0.5249327528927619 0.5931009857339801 0.0
0.9001735179724162 0.8869360961364446 0.0
0.8859111035975548 0.10227987204363244 0.0
0.11725139978370488 0.9010308683666899 0.0
0.1022680246125624 0.1169792727755319 0.0
0.7627054119546695 0.39381373370557493 0.0
0.24009923721193238 0.6112121151197161 0.0
0.3920770885365841 0.23707751358842535 0.0
0.8985819104337195 0.4388981251141016 0.0
0.43807143414642674 0.10371454822091015 0.0
0.5665126034459027 0.8955546568904756 0.0
0.10400903541006117 0.5650323019687638 0.0
0.7893868595044029 0.7436056008196109 0.0
0.7434612760411043 0.21297722663112992 0.0
0.25872899220527373 0.7905281966732366 0.0
0.21272781273727753 0.2580858522767026 0.0
0.7218087803363167 0.8013613792685294 0.0
0.7953243431762823 0.28512446440432515 0.0
0.2072157103906066 0.7187572209370312 0.0
0.2887415306136119 0.2025060056173928 0.0
0.5956906522704586 0.4960438842653733 0.0
0.4922831176186844 0.41307803465439075 0.0
0.42669656045895815 0.5473173235189613 0.0
0.633777604245023 0.7592125998705128 0.0
0.6532326088092582 0.35573130754006543 0.0
0.4975359599626241 0.6934667404976972 0.0
0.35569874870232 0.6436133238497485 0.0
0.3509592291506768 0.34865429277874554 0.0
0.9175322738515652 0.8171497418060414 0.0
0.8164292760220065 0.08526275149373311 0.0
0.18645193661042295 0.9179036603135036 0.0
0.0852244076668857 0.18608579573822456 0.0
0.8292798637209187 0.9113994551382761 0.0
0.0923654121596334 0.8298429568510386 0.0
0.9106879964510584 0.17327738999756595 0.0
0.1734698170388739 0.09223735390900355 0.0
0.699579119353929 0.519519084638764 0.0
0.6502766237042142 0.6498030901997999 0.0
0.5141953849309919 0.30449470690138175 0.0
0.3013198269758316 0.48491914592377644 0.0
0.9187852489020988 0.609182387388298 0.0
0.6143441193612857 0.08702339768083579 0.0
0.39702547229753105 0.9215421512883809 0.0
0.0844960484580814 0.38838569302994147 0.0
0.6653461820634566 0.9200310963728097 0.0
0.08269417211022363 0.6637214540785383 0.0
0.9204518521167231 0.339604293507973 0.0
0.33975842145452173 0.08253509539154771 0.0
0.8226173723527207 0.43852034534264467 0.0
0.5683547581083016 0.8171143064971943 0.0
0.43688009977997866 0.17826113837864815 0.0
0.17992252334747286 0.5655662973102108 0.0
0.4352213577552944 0.45913881727625955 0.0
0.8197710680031385 0.5716765393026153 0.0
0.5696535841164637 0.18268960807655174 0.0
0.4317776655345957 0.8195202470649189 0.0
0.1824094972168532 0.4324739892206664 0.0
0.772335305241865 0.6690773226259048 0.0
0.669513474145805 0.22694905266710655 0.0
0.33286242696026125 0.7768169095101172 0.0
0.22747125048366276 0.3323945282389507 0.0
0.930015065835878 0.6858893387460684 0.0
0.6860690852307653 0.07344907619788407 0.0
0.3140050055309744 0.9279351167581404 0.0
0.07517253972492056 0.3127879844435428 0.0
0.5629009617270833 0.7413240505648752 0.0
0.603593424909317 0.42058843244939775 0.0
0.3767061981183248 0.4997877614539678 0.0
0.7352088066246428 0.46033168665112106 0.0
0.45706440224365996 0.26361852545893727 0.0
0.268199739047106 0.5434235080507871 0.0
0.5887782103536532 0.6151673712481003 0.0
0.41937397315761843 0.3879494552885979 0.0
0.5735057404978852 0.5430244393397038 0.0
0.5498828308701086 0.4496814552834385 0.0
0.9351478696750968 0.49793503950632023 0.0
0.49930660613529515 0.0677167618160907 0.0
0.503349316193956 0.9332391783431405 0.0
0.0677017179915482 0.5039285640036207 0.0
0.8458500859896874 0.5001686988194307 0.0
0.49837239088815566 0.15510667343588502 0.0
0.5003766816047766 0.8430040208993682 0.0
0.1556213769369768 0.5040264277473883 0.0
0.8455807817863386 0.6989834305906191 0.0
0.6990449051072718 0.1571288958614967 0.0
0.3023641187502037 0.8452229996399484 0.0
0.1574199795759747 0.3025697297296388 0.0
0.7726602464512423 0.8384890224494375 0.0
0.8363398311138392 0.2302056580323528 0.0
0.16642819058950384 0.7730686750860115 0.0
0.22950201090812816 0.16535436462207875 0.0
0.7630018424248555 0.3288314194242271 0.0
0.23933850610171795 0.6753567096313263 0.0
0.3273666525969802 0.23861375582599917 0.0
0.640662765518241 0.3025341830382316 0.0
[...]
POINT_DATA 2209
SCALARS Psi double
LOOKUP_TABLE default
0.0
0.0
0.0
0.0
0.0
0.0
0.0
0.0
0.0
0.0
0.0
0.0
0.0
0.0
0.0
0.0
0.0
0.0
0.0
0.0
0.0
0.0
0.0
0.0
0.0
0.0
0.0
0.0
0.0
0.0
0.0
0.0
0.0
0.0
0.0
0.0
0.0
0.0
0.0
0.0
0.0
0.0
0.0
0.0
0.0
0.0
0.0
0.0
0.0
0.0
0.0
0.0
0.0
0.0
0.0
0.0
0.0
0.0
0.0
0.0
0.0
0.0
0.0
0.0
0.0
0.0
0.0
0.0
0.0
0.0
0.0
0.0
0.0
0.0
0.0
0.0
0.0
0.0
0.0
0.0
0.0
0.0
0.0
0.0
0.0
0.0
0.0
0.0
0.0
0.0
0.0
0.0
0.0
0.0
0.0
0.0
0.0
0.0
0.0
0.0
0.0
0.0
0.0
0.0
0.0
0.0
0.0
0.0
0.0
0.0
0.0
0.0
0.0
0.0
0.0
0.0
0.0
0.0
0.0
0.0
0.0
0.0
0.0
0.0
0.0
0.0
0.0
0.0
0.0
0.0
0.0
0.0
0.0
0.0
0.0
0.0
0.0
0.0
0.0
0.0
0.0
0.0
0.0
0.0
0.0
0.0
0.0
0.0
0.0
0.0
0.0
0.0
0.0
0.0
0.0
0.0
0.0
0.0
0.0
0.0
-0.06144062428807871
-0.09095542609864601
-0.014213879734414512
-0.05819113006757197
-0.014343240315088131
-0.035652036291984254
-0.012607395711467014
-0.09333484085839933
-0.0249158911577887
-0.0683144188271532
-0.0015285444364244421
-0.03834573631240008
-0.0023524546640687452
-0.07339834416639623
-0.033151828441179254
-0.07889275259270655
-0.03595908573813971
-0.04027508840691516
-0.004848933581873989
-0.0696497406828014
-0.0077796837340776345
-0.09129715045044945
-0.007437908331664979
-0.02202492550720826
-0.005408262428807239
-0.04210463551130394
-0.09676040417396972
-0.024834515246682152
-0.04951600378019833
-0.013858670926163675
-0.0034501359887646244
-0.07209998881529281
-0.007665778989347069
-0.031459281497037514
-0.0011760386765251652
-0.05094350429112357
-0.0020236147347917595
-0.07351038109794591
-0.01778648546531755
-0.0015908904441764402
-0.0020121892919386744
-0.06555154630506499
-0.014122161019038708
-0.07991474473251241
-0.02012735748835684
-0.08076424075640318
-0.04109403998210799
-8.75283639542965e-05
-0.027909557045452955
-0.0003200396577046972
-0.02011121978592478
-0.037436910318055135
-0.012659042247096488
-0.005593818056674235
-0.0028001314410716236
-0.07302071436946182
-0.00879293130996991
-0.07725500858407919
-0.005372133575122587
-0.0537951303012307
-0.0068281836630213625
-0.0929394614509067
-0.006858203335779932
-0.03748638921362213
-0.006655077716265071
-0.05976735909309064
-0.041990833293791725
-0.06287966768251649
-0.10140320867796578
-0.026232925603413726
-0.09220349455421163
-0.06473778444963764
-0.02366311136246325
-0.029414102737493713
-0.0003060171576433567
-0.03971623381105926
-0.0006616650059740894
-0.05470816748355762
-0.015601607825573861
-0.00024108348026031514
-0.0005744449073585614
-0.054317427876589025
-0.09063574010781043
-0.023184465499911395
-0.035741485712363644
-0.01104038758522603
-0.001674612877621281
-0.055102425761014685
-0.0030393888724829002
-0.0611387788065195
-0.007574579977196544
-0.0015036744034097557
-0.001421213246555805
-0.016423734965155683
-0.09519136298853875
-0.007897735791039494
-0.021959747737153795
-0.04770772401374771
-0.03632371473062043
-0.008062455598179342
-0.08276708629776776
-0.01430442633658868
-0.0709512784583283
-0.009346272541146172
-0.06865629873680187
-0.012320361130204339
-0.013142620406675616
-0.0008712434083843304
-0.047731570060572576
-0.0015948351170430083
-0.10019202495345986
-0.042098287243800776
-0.04846224116900685
-0.035136399649048765
-0.017102771196816274
-0.03681429689463207
-0.08691780015954284
-0.034052097460428386
-0.07153727883940889
-0.05028704261945543
-0.003512186641961789
-0.0012913206889592064
-0.05234908222567792
-0.0034042442057295517
-0.01886140490670422
-0.006264022854777377
-0.08601953072398096
-0.014474601010747774
-0.04945511937972311
-0.0037636968043036727
-0.062136122667305595
-0.005699413617269483
-0.08117192247067673
-0.002522978487073062
-0.030757127991327765
-0.003176305971629087
-0.012731548563592885
-0.04229081291772459
-0.010664740789945462
-0.019049916323103606
-0.07195727675576714
-0.021210091506774054
-0.05672559247735521
-0.001834074090773224
-0.005315808399711245
-0.00131055471214362
-0.06482100718903512
-0.08576307398740095
-0.017460163188925966
-1.2085068755775762e-05
-0.024416520441712643
1.8657316944457717e-05
-0.07216290556707924
-0.0043684634357070325
-0.0009793760152423106
-0.04745916223207605
-0.0021972442724792775
-0.01565700115070753
-0.00033673949449264785
-0.038971173481438165
-0.0006477075778425314
-0.04687678517152452
-0.006772425339040692
-0.00027361916395246154
-0.000511877863742374
-0.05907456432665783
-0.002145752054362106
-0.04959511385871131
-0.0032530117985481955
-0.0875092702797993
-0.004613800522286948
-0.023387000237377456
-0.004375170591427363
-0.0826660212782815
-0.06051070868465943
-0.03264595201868678
-0.050662573778370926
-0.022527506562149583
-0.09868238200438884
-0.029369413986589838
-0.07473822034675606
-0.01532181924664854
-0.025087623457690705
-0.019944788821765206
-2.700152314856006e-05
-0.030045381192138957
-0.0001444273733960592
-0.04055841919385156
-0.011043220030872424
-2.8499423450348448e-05
-0.00017735984059299558
-0.0911601307055979
-0.029423156194114636
-0.020400308311100727
-0.05055874589158476
-0.08820464929265638
-0.025128703231098205
-0.004482372534381219
-0.07379952476442114
-0.008218193177283189
-0.08872729205924082
-0.00837999878510772
-0.05151369990006016
-0.009176182452174799
-0.09813307818154625
-0.05451252615338076
-0.009521331995475602
-0.07677527461914323
-0.014237515238271789
-0.04897374114510196
-0.005675571589053102
-0.0004871494616974542
-0.0006859908398702287
-0.05010319069899632
-0.00043204157310238
-0.03525065594366173
-0.0009013672110989292
-0.015768189193080328
-0.009209197850735814
-0.02856242788650077
-0.08525703991051434
-0.07777211949167526
-0.003221808780942076
-0.0435925883928572
-0.004248552977617699
-0.020043844975159434
-0.05218948830954647
-0.016424848362757614
-0.0053400324197427846
-0.08044205193542106
-0.003480659515823356
-0.013280764065658432
-0.09859544521710698
-0.07573354508846206
-0.09647407432060862
-0.05764766503976316
-0.07384037056574146
-0.009087602695204377
-0.03257915069568006
-0.007338888224846864
-0.039986423689246375
-0.024998510298039883
-0.02791508722475215
-0.0013709884506893123
-0.0007925906839433824
-0.04447242575317899
-0.0026895267967413936
-0.07029808014435768
-0.025836687344042823
-0.001079123546607037
-0.0016950232518164418
-0.009281066200489423
-0.0034362883981739955
-0.0755486262536682
-0.00892483088801924
-0.024914057506037715
-0.012578654051521603
-0.031744933766090215
-0.04976739049125068
-0.06374792917508393
-0.031167941917854654
-0.002628867303220084
-0.06196939095666298
-0.00434427481179877
-0.0061003647043678805
-0.00022931653517786115
-0.029357212993300588
-0.00036844711284316384
-0.0033528787813070175
-0.0003546274899020768
-0.034871200843290324
-0.0008200586717798935
-0.033084637423741396
-0.09730066013895748
-0.037003398029725285
-0.050030971186295944
-0.05670893120139891
-0.10099423704185419
-0.04889901851042233
-0.0010221844536580872
-0.04473628194350004
-0.0017557697999860515
-0.08303899429861701
-0.009998875032945142
-0.0606057036642014
-0.011621948839016759
-0.05374324394229888
-0.0002730893243823424
-0.02559625559867374
-0.0006494940043564004
-0.06622123774271492
-0.026425627477283806
-0.09594426095706302
-0.07218593402432491
-0.039198810907706494
-0.044111201241427256
-0.09704953885522173
-0.03361693693745845
-0.040897347488815294
-0.06848784080193307
-0.042571104588511544
-0.04493687686696206
-0.01744315938059645
-0.021734104722958805
-0.03242836381007411
-0.08445404149830088
-0.09320758444510416
-0.009814923767234321
-7.261470637507228e-05
-0.02942643541612704
-0.00019157017532883675
-0.03802966279860364
-0.00547310108494473
-7.225030130771666e-05
-0.0002234964478849357
-0.043743660130880706
-0.05179963029152433
-0.056819309930517786
-0.01235532588287208
-0.01938608768056743
-0.02407820374280483
-0.0063097735558157834
-0.08752081290785949
-0.012911857197361001
-0.08027822351097229
-0.015745899899395996
-0.0037083326191608076
-0.003187308127715318
-0.0356424588819161
-0.002148155180454141
-0.0003997445704944704
-0.0004092518976070911
-0.0029386973516562667
-0.0005811572397126507
-0.03360299606159311
-0.001189359433291984
-0.01261407190693496
-0.005433591304409786
-0.08693032584714586
-0.01484886835949238
-0.030627710126105358
-0.01018522338861984
-0.0915847514356683
-0.005845637507786949
-0.01943640281644542
-0.013738932512506435
-0.07440420669196525
-0.017701936021927683
-0.06497127077477459
-0.01635589789294473
-0.000742050233100058
-0.001198924141092082
-0.08661342938923411
-0.031895599579453836
-0.0006559060964166177
-0.045100981657603643
-0.0012102214123477816
-0.026193962966151736
-0.003215642696976684
-0.0668850905391058
-0.005503073470961133
-0.01418655403380325
1.1943725763669351e-05
-0.02278895865954804
-2.6725685703891053e-05
-0.007134516538032197
-0.025996997763801405
-1.975796041759174e-05
1.4273224867381823e-05
-0.08301529277044166
-0.05779961777305155
-0.006260458786232472
-0.06742840722603212
-0.009002442451309647
-0.07049454174710065
-0.012538903573913546
-0.0018406477404535183
-0.0019574169283653473
-0.09165043267671012
-0.01983132582639254
-0.06171770976647212
-0.01894003995851608
-0.011515877173378762
-0.020737329125658205
-0.040338151926017966
-0.028422979039381922
-0.023620374175954324
-0.009313246933560034
-0.02183887802770256
-0.010432139956471404
-0.0021517573316067588
-0.062380037830979174
-0.004471138994009496
-0.08059295562296209
-0.051459977633107286
-0.06418464349654308
-0.07850312973499174
-0.0732960190530171
-0.018826910329878484
-0.023594915857149425
-0.037793321180860415
-0.006144286038933567
-0.07684530664179644
-0.010268607227966967
-0.01401679696095935
-0.009854944764761158
-0.03511963638767155
-0.10123102318997362
-0.05040027521883311
-0.07245280756819004
-0.006855372956728362
-0.061396104063487035
-0.008924229402762869
-0.0014263075200228476
-0.00044802264255354034
-0.033006227017952826
-0.0011330963480028883
-0.08049375584575437
-0.07856485394084961
-0.08044516574564055
-0.04034675932230429
-0.035590871984529746
-0.02026948403057101
-0.04503441895197302
-0.09255355875430672
-0.09063493428269678
-0.08551578219264956
-0.003515488632684843
-0.028724884465819226
-0.0038655242162698895
-0.0874955280391012
-0.0046876240697444095
-0.04169997253562159
-0.005460787490358804
-0.05138068558830205
-0.0024913632854010495
-0.0550977856770597
-0.0038219029722078297
-0.023718852955138446
-0.0012158639266248044
-0.052493518477097816
-0.0021783129837827727
-0.0329075258693181
-0.014236868193187379
-0.030610417140588767
-0.09813242935906943
-0.014468575185698862
-0.06719829116853361
-0.016471893264601627
-0.05000717170255962
-0.027500349759878053
-0.00357228757477529
-0.00022955409622362982
-0.026350750723666806
-0.0003701694444461362
-0.039231354292891325
-0.0391628932681816
-0.07228238756450409
-0.015350326471298208
-0.0015300254511954818
-0.054409239842301345
-0.0026232098636629047
-0.011540200410583751
-0.04980933562763487
-0.011177238301728652
-0.03392978788553688
-0.00014593216116597657
-0.034191465541966344
-0.00040756554173764826
-0.0328521876228692
-0.00215281266580897
-0.00023509870326778997
-0.000314209194105519
-0.0009004774873165077
-0.0003984292626981063
-0.0309693749328038
-0.0011515800587912697
-0.006157680742445242
-0.0016027730485251674
-0.05658445267803396
-0.003789976469802327
-0.01075050326001638
4.5351157177579845e-06
-0.012638041792470028
5.4785135021559474e-06
-0.08217665942371004
-0.028152164191019655
-0.016259142349254855
-0.04084555543540727
-0.06112389968869929
-0.0006297602183759414
-0.02979394637654172
-0.0011776931750453697
-0.03025122577989238
-0.0024640266322842335
-9.58187784871732e-05
-0.00020198265835544377
-0.009059288258679408
-0.018668451521353803
-0.02881299273097796
-0.09775843039771144
-0.054512351760588544
-0.06280754721231246
-0.0073121754555483705
-0.0020174208281243822
-0.0016165669115520405
-0.09355848268927544
-0.09990988209747945
-0.07706515687187977
-0.024842470229431222
-0.0018028732711842291
-0.0023880146445589704
-0.05806744431709049
-0.0007024595320495216
-0.009339292090989323
-0.0009980279344254364
-0.08785378143272894
-0.08982823702332733
-0.01874305341629646
-0.0005553347242129675
-0.0435416727277687
-0.001018743863785018
-0.056872032811694256
-0.0032238803372156098
-0.0015338250175223442
-0.05794363022356794
-0.004659274331766735
-0.03275100217184022
-0.001509479022039109
-0.0005737242626417351
-0.0003985074688207155
-0.08701651578479462
-0.06700104344160403
-0.08326484771561148
-0.0472188354825276
-0.08542032316963746
-0.00775206652149161
-0.08225089819026908
-0.0040327509279039124
-0.012907571672588705
-0.07298773752820319
-0.04714234140986036
-0.020610319322064863
-0.031087331670046993
-0.09985170195220994
-0.017170707646014916
-0.023828352272345834
-0.00948700080335912
-2.007571922026156e-05
-3.7697802644438926e-06
-7.284635032270395e-05
-0.02809796078614306
-0.004008074565442116
-0.02557561989415309
-9.181719769474803e-05
-0.024805203688922448
-0.055534270972754374
-0.019791062069220915
-0.065173470046625
-0.06539816466625102
-0.017879533280114473
-0.0427651382262152
-0.013071035359642979
-0.08067423605832784
-0.057402741366408924
-0.07505739014802151
-0.0020380701939711325
-0.036527278135590834
-0.0028783463431187963
-0.09442851504558435
-0.07003413976560732
-0.0032150279722507284
-0.06726905128114304
-0.0020476386520002364
-0.04966532894465821
-0.04404081533914793
-0.004469779256191925
-0.0030292238035298084
-0.01004537718064724
-0.02690520884804556
-0.0070330540761490866
-0.09180942150002502
-0.0032359639392464906
-0.06520684992559582
-0.0019600597290468057
-0.007038936614948083
-0.02753030955836829
1.2771406732462655e-05
-0.02352196252689019
-6.428737510488116e-05
-0.003584990836219603
-8.321900304846574e-05
-0.02213990436197971
-0.00016252855712795358
-0.023001567657354515
-0.023675130997379983
-0.07043388425293985
-0.005324529404249508
-6.089589601286719e-05
-0.02361357061540868
-0.00014366072589716073
-0.028707030300849715
-0.002704008839769037
-4.6169003875602636e-05
-0.00013997149639521786
-0.06701987979281224
-0.04491807733567408
-0.0014278922845679495
-0.049990090345721085
-0.002349988481266969
-0.01439777330619221
-0.004479316050319869
-0.07966162010952435
-0.010496063809908356
-0.06735970577813058
-0.0044024929377263705
-0.05657344693948162
-0.006040061591949182
-0.009877577005814561
-0.038126870933977014
-0.008956168256082985
-0.05586111406718817
-0.09058717764963298
-0.09005628662189387
-0.023438192237131287
-0.045220321306154346
-0.016027585818715454
-0.0402770842214775
-0.01728251425773453
-1.4854939181828511e-05
-0.00016022431221362145
-0.04209085634419829
-0.0039276375960164926
-0.06547002907583507
-0.00615911728725025
-0.08378148968123025
-0.005202588928855325
-0.047758654904355345
-0.006272687108765881
-0.034429478195030665
-0.08622593244243167
-0.06574451911275295
-0.03524304925394963
-0.03404017572315605
-0.09377150658424219
-0.000547034194553338
-0.000123831576157604
-0.019073351325950182
-0.0002881480743196967
-0.05872794980438029
-0.08991937005713238
-0.030587048501430632
-0.05461510231240014
-0.03521483533484715
-0.005382887154149961
2.3781129321796536e-06
-0.008203539447622515
-0.018558187227072843
-0.016309750741261078
7.088548489400035e-06
9.85094952958761e-06
3.4922577639603547e-06
-0.07163203230499308
-0.005508792938766594
-0.006043164330073522
-0.02882746231837532
-0.023269659515468073
-0.0055601539626610715
-0.005039695747626483
-0.10064216356667086
-0.05752693118224229
-0.01615342244308519
-0.0513724469703733
-0.01416764385477289
-0.043653569677256664
-0.09804059159813756
-0.04299813332914714
-0.002464655197335026
-0.057938837766285084
-0.003903942086635513
-0.09554807487536389
-0.012009192944919733
-0.07704986447633544
-0.016667419531155914
-0.09890772999831624
-0.051931607214141334
-0.0070190264597884845
-0.07222388031728032
-0.010575431513103918
-0.048243704709055237
-0.015353892626281155
-0.0001021240654622074
-0.0003429684114193375
-0.08107678501191609
-0.022559375101629753
-0.0026272400775288127
-0.0029762879893203997
-0.07800306165107511
-0.03366306486826122
-0.06674235536527773
-0.09622600426037452
-0.02567431658636571
-0.015325731174182814
-0.027412270956359737
-0.0794700295088679
-0.04394908627690413
-0.019263439951465063
-0.011324148797313333
-0.03318051770352872
-0.007825826958029282
-0.04245882094640024
-0.00787730802943649
-0.020896058981245944
-0.0046916696368872295
-0.009393909988351412
-0.07703897969901126
-0.08650734071466731
-0.03449139719635853
-0.003891020262942187
-0.004422166076306928
-0.020003528564259777
-0.00023006754928387279
-0.037909286722802284
-0.0005039289840036883
-0.04870470047659048
-0.008963684212535766
-0.0002126940613078778
-0.00047052263868137484
-0.055501928302107054
-0.02682898339125056
-0.07596888790041217
-0.017932856670159383
-0.006986480536475528
-0.017345725821837778
-0.02757336416953592
-0.0011364274686349442
-0.00025663918717536784
-0.00023858232681731834
-0.09457472446014276
-0.01811582246188545
-0.031877902525249836
-5.833721299697216e-05
-0.0002019468788701704
-0.08066490097414956
-0.006965357658610886
-0.0557663479190405
-0.008449736164587154
-0.06593982790034625
-0.0317765435407464
-0.004609490248945606
-0.07276637771234462
-0.007878632334294176
-0.08292547395869726
-0.004949601575205283
-0.015768797667583132
-0.0036871889775707913
-0.09988559134035678
-0.04961781536964752
-0.09593462627172576
-0.06029229254876002
-0.00044055482871008445
-0.0218706124300985
-0.0008876299892998281
-0.023092574173848895
-0.00794880882406951
-0.05310833969421128
-0.00949808451049812
4.611634096942046e-06
-0.023153234380668075
-3.474746519703224e-05
-0.02278122059680418
-0.0036831794557473335
9.719481345127547e-06
-2.019345757324509e-05
-0.09346837379957235
-0.017647630605431824
-0.009151726900594358
-0.0259659911721428
-0.059153858794294786
-0.0008912637482481368
-0.03749771636616957
-0.001557470195093741
-0.030363238777940626
-0.0012060628389910224
-0.0025260789066043894
-0.06426181464251873
-0.05820920026404666
-0.0109855921889287
-0.05510862971276612
-0.011559829268873468
-0.001049189097654159
-0.00014452374317960954
-0.022391095037359327
-0.00031248056448010775
-0.08756351873320445
-0.0752583275321659
-0.07947657136695958
-0.019791957572396195
-0.002952870118938455
-0.0666735600570629
-0.005373664278616289
-0.058958790786939184
-0.0010687444273063831
-0.0077292068933813305
-0.0011971968429602836
-0.0316830151367853
-6.437040934670872e-05
-0.03124918477165808
-0.00025369845873269344
-0.05037881169702397
-0.040035785077011235
-0.00039793346210756624
-0.03921624016549369
-0.0008349704497689525
-0.09928057176989338
-0.030126421631060267
-0.006066235999046902
-0.011078484220905706
-0.04914603428091585
-0.00022819746071010708
-0.02911520282731827
-0.0005776634936539772
-0.010887966754264932
-0.006839672136048677
-0.023944330165147805
-0.03236585230109134
-0.014723918921626658
-0.0007165497706458864
-0.04752017931483936
-0.0015012649434150004
-0.017409433782713642
-0.0006856554263017788
-3.813748185556978e-05
-7.323142317012071e-05
-0.008717926795393452
-0.016709847999350238
-0.059610368752594636
-0.019098236430303943
-0.03191576501609914
-0.08527397970005882
-0.03658838369382589
-0.046315933416468565
-0.00951365598559546
-0.015369235089026701
-0.0013287724390325004
-9.978017283124649e-05
-0.020109038442156207
-0.0001872098504384383
-0.022349427242962225
-0.022427014084499677
-0.010387459329380197
-0.026259891639262383
-0.047540537589351846
-0.02189260517643689
-0.00010138466317685866
-0.00035403555775896667
-0.028338959221698365
-0.09617766401904941
-0.008760383799083124
-0.0028705388991084662
-0.06993048965034747
-0.007008149676191594
-0.07773786672279545
-0.06260656889335396
-0.03148769788233598
-0.08042710270721598
-0.01641388998276948
-0.06320129967960769
-0.016951312606367668
-0.009487386926385021
-0.07297851517567497
-0.013284474825616814
-0.06312192329523761
-0.03529332159061582
-0.0708328600162941
-0.0005579622304265081
-0.00021895725990471422
-0.02301995964921416
-0.0006012115103262714
-0.013506502219495859
-0.0050292292451407225
-0.08476776358513347
-0.01273366816830922
-0.07606727973080658
-0.05966250627898024