# vtk DataFile Version 1.0
2D Simulation C++
ASCII
DATASET UNSTRUCTURED_GRID
FIELD FieldData 1
NODES 1 2 int
2209 4256

POINTS 2209 double
0.0 0.0 0.0
0.0 1.0 0.0
1.0 1.0 0.0
1.0 0.0 0.0
0.0 0.02500000037252903 0.0
0.0 0.05000000074505806 0.0
0.0 0.07500000298023224 0.0
0.0 0.10000000149011612 0.0
0.0 0.125 0.0
0.0 0.15000000596046448 0.0
0.0 0.17499999701976776 0.0
0.0 0.20000000298023224 0.0
0.0 0.22499999403953552 0.0
0.0 0.25 0.0
0.0 0.2750000059604645 0.0
0.0 0.30000001192092896 0.0
0.0 0.32499998807907104 0.0
0.0 0.3499999940395355 0.0
0.0 0.375 0.0
0.0 0.4000000059604645 0.0
0.0 0.42500001192092896 0.0
0.0 0.44999998807907104 0.0
0.0 0.4749999940395355 0.0
0.0 0.5 0.0
0.0 0.5249999761581421 0.0
0.0 0.550000011920929 0.0
0.0 0.574999988079071 0.0
0.0 0.6000000238418579 0.0
0.0 0.625 0.0
0.0 0.6499999761581421 0.0
0.0 0.675000011920929 0.0
0.0 0.699999988079071 0.0
0.0 0.7250000238418579 0.0
0.0 0.75 0.0
0.0 0.7749999761581421 0.0
0.0 0.800000011920929 0.0
0.0 0.824999988079071 0.0
0.0 0.8500000238418579 0.0
0.0 0.875 0.0
0.0 0.8999999761581421 0.0
0.0 0.925000011920929 0.0
0.0 0.949999988079071 0.0
0.0 0.9750000238418579 0.0
0.02500000037252903 1.0 0.0
0.05000000074505806 1.0 0.0
0.07500000298023224 1.0 0.0
0.10000000149011612 1.0 0.0
0.125 1.0 0.0
0.15000000596046448 1.0 0.0
0.17499999701976776 1.0 0.0
0.20000000298023224 1.0 0.0
0.22499999403953552 1.0 0.0
0.25 1.0 0.0
0.2750000059604645 1.0 0.0
0.30000001192092896 1.0 0.0
0.32499998807907104 1.0 0.0
0.3499999940395355 1.0 0.0
0.375 1.0 0.0
0.4000000059604645 1.0 0.0
0.42500001192092896 1.0 0.0
0.44999998807907104 1.0 0.0
0.4749999940395355 1.0 0.0
0.5 1.0 0.0
0.5249999761581421 1.0 0.0
0.550000011920929 1.0 0.0
0.574999988079071 1.0 0.0
0.6000000238418579 1.0 0.0
0.625 1.0 0.0
0.6499999761581421 1.0 0.0
0.675000011920929 1.0 0.0
0.699999988079071 1.0 0.0
0.7250000238418579 1.0 0.0
0.75 1.0 0.0
0.7749999761581421 1.0 0.0
0.800000011920929 1.0 0.0
0.824999988079071 1.0 0.0
0.8500000238418579 1.0 0.0
0.875 1.0 0.0
0.8999999761581421 1.0 0.0
0.925000011920929 1.0 0.0
0.949999988079071 1.0 0.0
0.9750000238418579 1.0 0.0
1.0 0.9750000238418579 0.0
1.0 0.949999988079071 0.0
1.0 0.925000011920929 0.0
1.0 0.8999999761581421 0.0
1.0 0.875 0.0
1.0 0.8500000238418579 0.0
1.0 0.824999988079071 0.0
1.0 0.800000011920929 0.0
1.0 0.7749999761581421 0.0
1.0 0.75 0.0
1.0 0.7250000238418579 0.0
1.0 0.699999988079071 0.0
1.0 0.675000011920929 0.0
1.0 0.6499999761581421 0.0
1.0 0.625 0.0
1.0 0.6000000238418579 0.0
1.0 0.574999988079071 0.0
1.0 0.550000011920929 0.0
1.0 0.5249999761581421 0.0
1.0 0.5 0.0
1.0 0.4749999940395355 0.0
1.0 0.44999998807907104 0.0
1.0 0.42500001192092896 0.0
1.0 0.4000000059604645 0.0
1.0 0.375 0.0
1.0 0.3499999940395355 0.0
1.0 0.32499998807907104 0.0
1.0 0.30000001192092896 0.0
1.0 0.2750000059604645 0.0
1.0 0.25 0.0
1.0 0.22499999403953552 0.0
1.0 0.20000000298023224 0.0
1.0 0.17499999701976776 0.0
1.0 0.15000000596046448 0.0
1.0 0.125 0.0
1.0 0.10000000149011612 0.0
1.0 0.07500000298023224 0.0
1.0 0.05000000074505806 0.0
1.0 0.02500000037252903 0.0
0.9750000238418579 0.0 0.0
0.949999988079071 0.0 0.0
0.925000011920929 0.0 0.0
0.8999999761581421 0.0 0.0
0.875 0.0 0.0
0.8500000238418579 0.0 0.0
0.824999988079071 0.0 0.0
0.800000011920929 0.0 0.0
0.7749999761581421 0.0 0.0
0.75 0.0 0.0
0.7250000238418579 0.0 0.0
0.699999988079071 0.0 0.0
0.675000011920929 0.0 0.0
0.6499999761581421 0.0 0.0
0.625 0.0 0.0
0.6000000238418579 0.0 0.0
0.574999988079071 0.0 0.0
0.550000011920929 0.0 0.0
0.5249999761581421 0.0 0.0
0.5 0.0 0.0
0.4749999940395355 0.0 0.0
0.44999998807907104 0.0 0.0
0.42500001192092896 0.0 0.0
0.4000000059604645 0.0 0.0
0.375 0.0 0.0
0.3499999940395355 0.0 0.0
0.32499998807907104 0.0 0.0
0.30000001192092896 0.0 0.0
0.2750000059604645 0.0 0.0
0.25 0.0 0.0
0.22499999403953552 0.0 0.0
0.20000000298023224 0.0 0.0
0.17499999701976776 0.0 0.0
0.15000000596046448 0.0 0.0
0.125 0.0 0.0
0.10000000149011612 0.0 0.0
0.07500000298023224 0.0 0.0
0.05000000074505806 0.0 0.0
0.02500000037252903 0.0 0.0
0.5068458327983032 0.5044539169547337 0.0
0.7127433142908749 0.7040505001977929 0.0
0.7036140969893664 0.29644720222065957 0.0
0.29844843157036205 0.7079630793000521 0.0
0.2960721940034693 0.2974489493037954 0.0
0.7773523864683101 0.5071139062643244 0.0
0.503942723341414 0.22330293247216795 0.0
0.4933781799108519 0.7792741799016506 0.0
0.2242414892852853 0.49796522777759156 0.0
0.830224508692983 0.8226122895632085 0.0
0.8212099370218757 0.1724150232789283 0.0
0.18156044620072403 0.8306837677135087 0.0
0.17205688060927993 0.1813903159919582 0.0
0.6437559383221879 0.5674530906416627 0.0
0.5651862269218164 0.36839808836415616 0.0
0.443165228632595 0.6363614720103972 0.0
0.3640360148418995 0.42916300279789765 0.0
0.8460147109232056 0.6451683806944511 0.0
0.6455567607553054 0.15708937554958816 0.0
0.3513960826681697 0.8431664401697577 0.0
0.15645907729177477 0.3568075185588611 0.0
0.6498753458133167 0.8433169419026684 0.0
0.8433864370914955 0.35947519682857054 0.0
0.15962692790955782 0.6446022982057837 0.0
0.35976186222725776 0.1586763855567492 0.0
0.6745838681487469 0.45043661014280983 0.0
0.5849707876915605 0.6779557647286747 0.0
0.4483051476795055 0.32160479133219855 0.0
0.3300246674753563 0.5574349572405615 0.0
0.8834919148502061 0.5333431799585799 0.0
0.5329455206472165 0.11460928895214839 0.0
0.4681059742254299 0.8873040718441443 0.0
0.11442641484900398 0.4703420262956461 0.0
0.8990392340331919 0.7438577725046476 0.0
0.7430218617509263 0.10421317666763387 0.0
0.2597755113920279 0.8987618056599614 0.0
0.10471121518860574 0.259841889107963 0.0
0.7467097359461651 0.8849525237122644 0.0
0.12028094563031387 0.7456739981941718 0.0
0.8827523270408765 0.25801457320560356 0.0
0.25702774475886797 0.11989291197834545 0.0
0.742714837794054 0.6058090436869094 0.0
0.6105684286437094 0.2526493823020506 0.0
0.3963153050396549 0.7496248644794608 0.0
0.2557445242346496 0.39630328077211874 0.0
0.5247963792357447 0.5934496675111403 0.0
0.9003270491980049 0.8870916370556963 0.0
0.8859181603685137 0.10225490556393134 0.0
0.11740433761025128 0.9011992735814089 0.0
0.10198005920693398 0.11720139333013928 0.0
0.7630750978217432 0.39411294883910003 0.0
0.2400557392943345 0.6116706079212311 0.0
0.3921940775215193 0.23748334390913006 0.0
0.8988889411946444 0.43894392647628017 0.0
0.43805175954893244 0.10375426558912493 0.0
0.5663477365302088 0.8962014028986931 0.0
0.10432058239993058 0.5651059457823472 0.0
0.7898076687854695 0.7442428418522804 0.0
0.743691592094935 0.2131021678331664 0.0
0.25875596702800474 0.7908389071729003 0.0
0.21303349835864424 0.25857625248544897 0.0
0.7220473846479595 0.8023731300433907 0.0
0.7955309314285127 0.28490706574014124 0.0
0.20714467973794434 0.7193674822454128 0.0
0.2887680365179965 0.2026557842877144 0.0
0.595617238126741 0.49657118464667266 0.0
0.4924901772717989 0.4133853917994332 0.0
0.42693579704851603 0.5477015460636211 0.0
0.6335061152910701 0.7598574567423008 0.0
0.6529487179890676 0.3565488633698702 0.0
0.497329145289912 0.6939880437948539 0.0
0.355481217557135 0.6439849164326091 0.0
0.3509896225066088 0.34907894709097415 0.0
0.9176969138147659 0.8176354025764608 0.0
0.8165740260633445 0.08522375535846226 0.0
0.18654288277644593 0.9179769451593115 0.0
0.08512611336426497 0.18636369798779495 0.0
0.8295679014407505 0.9116201641873197 0.0
0.09244043793258602 0.8298827867105667 0.0
0.9105937435550507 0.17339361306447457 0.0
0.1733731245795527 0.09222096183468527 0.0
0.6996452230488595 0.5198840808221621 0.0
0.650313732993906 0.6502800953840737 0.0
0.5143124519132628 0.3048843223895457 0.0
0.30168701695539085 0.4855182371047437 0.0
0.9189517613050413 0.6091439771157657 0.0
0.6145527873415491 0.08731586237819187 0.0
0.3969878258933308 0.9216660282135779 0.0
0.08451865298409969 0.38886081215800444 0.0
0.6655905693181963 0.9204712165044435 0.0
0.08272167814213717 0.6638256218571046 0.0
0.9205990315999434 0.33979488163068994 0.0
0.33976915820217507 0.08272292767773647 0.0
0.8228379308825142 0.43843913229862524 0.0
0.5681032337225973 0.8179366278654665 0.0
0.43692956355107293 0.1786251234629918 0.0
0.1802771476339067 0.5660355651373673 0.0
0.435081641437745 0.45939473833549627 0.0
0.820000446709012 0.5715365567352624 0.0
0.5699044444183493 0.18261465129669902 0.0
0.4316413877966988 0.8200479076013819 0.0
0.1823972831684385 0.43303657616365215 0.0
0.7723521827516766 0.6694324469101565 0.0
0.6695262235394777 0.22727837824490896 0.0
0.33263943587263123 0.7771606427866049 0.0
0.22753043313396057 0.33315447516342583 0.0
0.9303559692450778 0.6858369487108592 0.0
0.6861685780926483 0.07351908279977713 0.0
0.3141093533387849 0.9280670348011257 0.0
0.0754839223061356 0.3133308810716579 0.0
0.5625089420763852 0.7417231849088356 0.0
0.6035274737462105 0.42101516553670837 0.0
0.37677420002254186 0.49987098619522 0.0
0.7354078424229344 0.4604221948288314 0.0
0.4569449414350784 0.2637414330541741 0.0
0.2682809125332834 0.5436768462998772 0.0
0.5886046215088905 0.6155236797687841 0.0
0.41957297697770796 0.38825934693321024 0.0
0.5733531932164821 0.5434464586058773 0.0
0.5498127792833604 0.4503470276155646 0.0
0.9353017706753424 0.4983412087606822 0.0
0.49945941710745223 0.0676285704854099 0.0
0.5032550189586015 0.9335718986943546 0.0
0.06783624185213342 0.5040599864417437 0.0
0.8465320929307145 0.5005175207466013 0.0
0.4983860947540768 0.15511570822331258 0.0
0.5002496330913044 0.843592065043459 0.0
0.15561490567236344 0.504519879917246 0.0
0.8456075588518978 0.699526020761755 0.0
0.6991434740724363 0.15721382458184766 0.0
0.3023709240253119 0.8454153724483596 0.0
0.15715918154583314 0.3031896637236452 0.0
0.7728483419759801 0.8394450377656395 0.0
0.8365153919450712 0.23040975841493097 0.0
0.16616188590433878 0.7735352527896832 0.0
0.22958391727086036 0.16594158344467308 0.0
0.7629339242018274 0.3287887632943009 0.0
0.23915189788790664 0.6757421771816722 0.0
0.32727288249406455 0.2388367083760596 0.0
0.6405271756917205 0.3032141278051823 0.0
[...]
POINT_DATA 2209
SCALARS Psi double
LOOKUP_TABLE default
0.0
0.0
0.0
0.0
0.0
0.0
0.0
0.0
0.0
0.0
0.0
0.0
0.0
0.0
0.0
0.0
0.0
0.0
0.0
0.0
0.0
0.0
0.0
0.0
0.0
0.0
0.0
0.0
0.0
0.0
0.0
0.0
0.0
0.0
0.0
0.0
0.0
0.0
0.0
0.0
0.0
0.0
0.0
0.0
0.0
0.0
0.0
0.0
0.0
0.0
0.0
0.0
0.0
0.0
0.0
0.0
0.0
0.0
0.0
0.0
0.0
0.0
0.0
0.0
0.0
0.0
0.0
0.0
0.0
0.0
0.0
0.0
0.0
0.0
0.0
0.0
0.0
0.0
0.0
0.0
0.0
0.0
0.0
0.0
0.0
0.0
0.0
0.0
0.0
0.0
0.0
0.0
0.0
0.0
0.0
0.0
0.0
0.0
0.0
0.0
0.0
0.0
0.0
0.0
0.0
0.0
0.0
0.0
0.0
0.0
0.0
0.0
0.0
0.0
0.0
0.0
0.0
0.0
0.0
0.0
0.0
0.0
0.0
0.0
0.0
0.0
0.0
0.0
0.0
0.0
0.0
0.0
0.0
0.0
0.0
0.0
0.0
0.0
0.0
0.0
0.0
0.0
0.0
0.0
0.0
0.0
0.0
0.0
0.0
0.0
0.0
0.0
0.0
0.0
0.0
0.0
0.0
0.0
0.0
0.0
-0.05343789377111421
-0.08654000146645784
-0.012333014997961038
-0.053887741331792895
-0.01204788566650555
-0.03177269858752627
-0.010682033640818425
-0.08899884922107289
-0.021348700128534973
-0.06719404213060559
-0.0014700263147893967
-0.037665087560029425
-0.0020341887653961737
-0.06619644543660233
-0.02821541200413155
-0.07131037422641677
-0.030440336247020035
-0.03762210516990097
-0.004287806351431327
-0.06772323640760293
-0.00652199518447679
-0.08930473933475538
-0.0065399466607327416
-0.019948184244980436
-0.00461444663456207
-0.03669246583288987
-0.09008113542876608
-0.020843375043752083
-0.043275873829082795
-0.012475289170863876
-0.0029955518661138087
-0.07071230090521965
-0.006524723572606497
-0.030341295116497084
-0.00112096117354441
-0.0505491271293189
-0.0017260968533855535
-0.07272601039897023
-0.01706693320705459
-0.001507303760608716
-0.001746476556161825
-0.06044657580065367
-0.01210926808325731
-0.07509910894313743
-0.016964669993975504
-0.07246855803709719
-0.04093911907337861
-0.00012609979030096862
-0.028067412226249668
-0.00029305166813400093
-0.01751391144193245
-0.033330947390734854
-0.010679457070871997
-0.00494893048846957
-0.0024211313532155896
-0.07174695673050635
-0.007759402990059727
-0.07465455521943115
-0.0048132142116669155
-0.05174074037923452
-0.005797964010807498
-0.09071272758503163
-0.006063571232961212
-0.035095093373946964
-0.0056585203969933325
-0.052393666169164146
-0.035668423407516026
-0.05502991158923755
-0.09732222762464425
-0.02259467661887949
-0.08550551116386443
-0.058353180955809096
-0.01986047578966836
-0.02883419650683336
-0.00033024994252391126
-0.039788375751835595
-0.0005798968651878772
-0.054557434742254184
-0.015543150521958692
-0.00027834812614848964
-0.0005163584628969585
-0.04839315553660254
-0.08423242589050048
-0.019554886320322207
-0.030622995285524812
-0.010191091662230667
-0.0015080169391735439
-0.05453391164440978
-0.0025719489509490384
-0.060624523962590784
-0.006986354645026132
-0.0013636150771034097
-0.0012427583707619145
-0.014421779590823153
-0.09209014892080672
-0.006742253957535896
-0.01931038096347684
-0.04072936856529637
-0.03298748258380561
-0.00693763769234133
-0.07974633093258687
-0.012108658424461712
-0.06701480284521451
-0.008155851007645182
-0.06528139195267292
-0.010375481637167628
-0.012331367448336033
-0.0008090828877414958
-0.04755548580324072
-0.0013613156323183987
-0.09497053136841127
-0.03621022461517516
-0.041640207824236435
-0.030831489518173282
-0.014378662619227768
-0.031978648326233254
-0.07914884247104147
-0.02871582834195804
-0.06339675263029056
-0.04335655178384744
-0.003148366420259948
-0.0011280463296032962
-0.05181655918600489
-0.002931279485912038
-0.016801194222502924
-0.005386220534334294
-0.08352482135510435
-0.012447616336620598
-0.04728630495874553
-0.003390793779385009
-0.06064167681084492
-0.004801079217568473
-0.07994797116449834
-0.002344933810622123
-0.029592157941538726
-0.0027619623225970803
-0.011111665855655062
-0.03864828184812224
-0.008995263390898116
-0.01636735446215405
-0.06639924274466433
-0.017863299152615787
-0.05600562486432899
-0.0016375906597165515
-0.004788586358372726
-0.0011491511983276865
-0.05756639879017358
-0.07957436471938742
-0.017695720199573217
-1.5174285661837833e-05
-0.024450271956161094
9.22049735792473e-06
-0.06382142378714967
-0.003933909079648319
-0.0008705229111465481
-0.04715645259507589
-0.0018580944311937053
-0.015140693673812065
-0.00034197882191353273
-0.03894448045992829
-0.000561926425185891
-0.04659276850760029
-0.006628818945642712
-0.00028891793667182834
-0.0004589056713706695
-0.05748347943927672
-0.002010622273468435
-0.0487323459954545
-0.0027795320822946623
-0.0859421582666065
-0.004118481332234063
-0.021776231831179788
-0.0037450768588161514
-0.0772611540474025
-0.05351831292472832
-0.027612377475427854
-0.04570802271009372
-0.019153282007140716
-0.09353796318960571
-0.024838513367802566
-0.06829246582035889
-0.013043411624026157
-0.02135618869622055
-0.019628638116302832
-4.853402245415968e-05
-0.0302176434199959
-0.00013553518933726169
-0.04065691688779809
-0.011069565498929453
-5.5829891876003894e-05
-0.00016645282004758811
-0.083566801726665
-0.025493888963721602
-0.017111449842154156
-0.04484818458208551
-0.08314909185665491
-0.022863587317432214
-0.003910636533816512
-0.07204294698984422
-0.006910915273634253
-0.0855119523327751
-0.007397028693273009
-0.04856918174807969
-0.007743500663893179
-0.09474345659668253
-0.05057769974445281
-0.008250393048478456
-0.07340103014080084
-0.01200132643927372
-0.048676702110494775
-0.005400074052834761
-0.0004703448789871081
-0.0006095626178294058
-0.049610781525725976
-0.0004670501285219014
-0.03516156127130725
-0.000796384875631152
-0.013791037422272424
-0.007828315273231053
-0.025383560639445163
-0.07739370510882697
-0.07602776904694902
-0.0029615831822315058
-0.04219485931051718
-0.0036422219934492506
-0.01734895315336777
-0.047306782497957084
-0.013775496637577968
-0.004706742923715529
-0.07903940244125272
-0.0029972809546765125
-0.011912804041945783
-0.0954854770098146
-0.06908051190860315
-0.09396500755916255
-0.04985188965991952
-0.06573321045748967
-0.007954103722627996
-0.029919230026594846
-0.0062202485381806765
-0.034076167508869326
-0.02135367074096976
-0.02351186639959433
-0.0012174461898624331
-0.0007054351614576313
-0.04407738410315274
-0.00238551321251079
-0.0695908026804168
-0.0254124555924747
-0.0010705912139205532
-0.0014847119945740556
-0.008254696559848193
-0.0029639876495732888
-0.07400784886921487
-0.007701780294904069
-0.021782228122723124
-0.010640883285907619
-0.027751024629765354
-0.042616269435471525
-0.05572817394991018
-0.029359172471704706
-0.0023746564193916765
-0.06096192897773964
-0.0036560930252530306
-0.00567746993632335
-0.0002279567185418658
-0.029266316797823277
-0.000322991477956791
-0.0030776251295452973
-0.0003294558409770773
-0.034577676767358075
-0.0007079166761889566
-0.027871708869963603
-0.09081403377922265
-0.031889944720454276
-0.04363546569334964
-0.04947617483699665
-0.09564798841427427
-0.047932116639548016
-0.0010043193156972527
-0.04441473066992929
-0.0015132276984109081
-0.07929202306419807
-0.008749344928741128
-0.05714747817442676
-0.00981614599661223
-0.05342678723933854
-0.00031388516233752696
-0.025607560635449913
-0.0005840458794738721
-0.05977270036071549
-0.02217680913932814
-0.09018414451308578
-0.06381024930646656
-0.033437424801927365
-0.038071483747642416
-0.09295314201701962
-0.02877640684223068
-0.03464224304824473
-0.06095109377416928
-0.03779436830583817
-0.0395362265486555
-0.01472059083372847
-0.01825621589766471
-0.02789171756020264
-0.07719430851865433
-0.08628712056637462
-0.009429984390639494
-8.634593424140913e-05
-0.02949693121661603
-0.00017339112838348576
-0.037999902670508026
-0.005457869109940082
-9.1490125298855e-05
-0.00020904892544680698
-0.03726752835091344
-0.0473382131455944
-0.05033139538569759
-0.010594031020221795
-0.016354066008843666
-0.021683606072886986
-0.005432565430500154
-0.08433961152770933
-0.010985188011725976
-0.07902035296585487
-0.01447986047011696
-0.003329511622223911
-0.0027492960174733535
-0.0353466623049316
-0.001974449718574411
-0.0003676301336631584
-0.00036521023696286815
-0.00263582691658992
-0.0005293680034173042
-0.033490302545535415
-0.0010166994438141007
-0.011109856680024859
-0.004655858561431138
-0.08468688287315605
-0.012984830698794417
-0.025767107778536857
-0.008942570086826133
-0.08924101093786702
-0.005000086380843147
-0.017262614025213403
-0.011817878047643933
-0.06975129151681012
-0.014912592726102143
-0.06451324495850183
-0.015977455188125576
-0.0007490753426146805
-0.0010608830236901324
-0.07949102043138369
-0.031198913425545365
-0.0006555269258933226
-0.044950299737225946
-0.0010450401441365654
-0.024422800085023268
-0.0028614956231628693
-0.06556229898920087
-0.004613359090748033
-0.013952945891484663
1.5541444285138008e-06
-0.022901917586284366
-2.827973319089408e-05
-0.007199612891132021
-0.025891016311468878
-2.1802693957333366e-05
5.0555814350792256e-06
-0.07896505908976631
-0.05467709826219483
-0.005543689755392892
-0.06503746874833659
-0.00757283499093871
-0.06973506781590745
-0.011774776864365639
-0.0017009703744330093
-0.0016931846423416232
-0.08630436426498495
-0.017105051004099054
-0.05636172339527022
-0.015907148596675975
-0.009831418580832677
-0.017644364602404
-0.03641438961013225
-0.024065909432366063
-0.020918268866472325
-0.00792215406232673
-0.01890161576022798
-0.009492237301706721
-0.0018902398296405253
-0.06159131947114833
-0.003759140585481577
-0.07840232263977871
-0.044262554497755256
-0.05841258129040195
-0.07065020439432605
-0.06854386067797574
-0.016080920544236897
-0.01992548036365638
-0.03474553128186618
-0.005362024894995455
-0.07435991452358423
-0.008634777328041136
-0.012240001203781438
-0.00833342300486078
-0.0317437222625095
-0.09700529184561979
-0.04359604109111611
-0.06924889708601838
-0.006062918825999507
-0.05881423826458766
-0.007525948146186748
-0.0012749248399612668
-0.0004050945482509306
-0.032908590347153495
-0.0009774036065052795
-0.0723044755031166
-0.0702755494669458
-0.07450655898040666
-0.034895289408336444
-0.03101173134977558
-0.016965985113910665
-0.03936581061131965
-0.08514183045649977
-0.08461532251839288
-0.0841446144123304
-0.00320158255212418
-0.027249370881950934
-0.0033268255073167175
-0.08541431104036956
-0.004237092443216448
-0.03976474488771188
-0.0046599377086230685
-0.04969115268604181
-0.002295203344142541
-0.054103792596410225
-0.0032534601477088535
-0.02263602273475007
-0.0011310154625480365
-0.05207838307808848
-0.0018491626698529141
-0.029039369055558834
-0.012034370635014193
-0.026482278202758343
-0.09202622390301701
-0.012499980877740346
-0.06257763215218029
-0.01384318898123057
-0.04384532658224965
-0.02317080714379756
-0.0033430065459225063
-0.00021862673511791506
-0.02622928800612134
-0.00032065341300156015
-0.03324243847465124
-0.03349679201468297
-0.0651241848637835
-0.014356987329370779
-0.0013931555845430586
-0.05397551414633012
-0.0022168996329957878
-0.010083065031562964
-0.04611573072817716
-0.009404921092602998
-0.033428344590343384
-0.0001804192498427142
-0.0342465628625102
-0.00036722686533519256
-0.032679971350235607
-0.002039751660348541
-0.00022516406737080842
-0.0002872738752724305
-0.00079637137686021
-0.0003607037320946588
-0.03088339174772675
-0.0010150612845612485
-0.005558413016339657
-0.001397688177064538
-0.05604411335004943
-0.0032336460227996014
-0.010792413039727493
3.3207186551472574e-06
-0.012453450293197282
4.50998305223309e-06
-0.07760499877845951
-0.024520612679847814
-0.013640804572711919
-0.03598076242150703
-0.060584033961450734
-0.0006542516103263524
-0.02959826486275033
-0.0010327258952301562
-0.02993449638443444
-0.002435753824034695
-0.00010059975107518924
-0.00018521057909189447
-0.0077465338199475585
-0.01599236440615128
-0.025800219912003416
-0.09334854316477752
-0.0469988327594121
-0.062064122559943494
-0.00664370233906781
-0.001814668397389049
-0.0014056893311488387
-0.0898820255077646
-0.09663448205003956
-0.07611258576722055
-0.02398971911351966
-0.0017166668849150518
-0.0020823008760906037
-0.05773499993886568
-0.0006836097926783487
-0.008949040857486929
-0.0008792703662308036
-0.08385064547786876
-0.08242058659325689
-0.01806855503550132
-0.0005439016090560092
-0.043452706777873475
-0.0008752419407540899
-0.04935071546874732
-0.0028739356660758973
-0.001340064669608071
-0.057250410541996095
-0.004077426730019266
-0.0324695442212446
-0.0013735153602900739
-0.0005055685124748502
-0.00036283711824185454
-0.0790526386619893
-0.05922742172961802
-0.07708721025651782
-0.04034020015602282
-0.0800599333041596
-0.006818389315441316
-0.08054194457976924
-0.003469701648247902
-0.011400483321388948
-0.06742708256183803
-0.04059919628754934
-0.01747136345185626
-0.026493002595722737
-0.09585299189510815
-0.014630372100026559
-0.0201519513335916
-0.009186149947326722
-3.26605165613934e-05
-1.6635322194930467e-05
-7.139081713575079e-05
-0.027893290056132728
-0.00403516858868782
-0.025593044490365154
-8.592264315424474e-05
-0.021406761694997507
-0.050061289278558505
-0.016559078875737526
-0.05700298644606111
-0.05755075542553349
-0.015531277271776089
-0.0384712638581462
-0.01102130425007529
-0.07389539939657959
-0.04984839158219965
-0.0737880463555552
-0.001926781912570251
-0.03560726131012818
-0.002487121961763982
-0.09071599571631968
-0.06805813633571688
-0.0029550487096366
-0.06578919120064576
-0.0019316330030038841
-0.04828933544110162
-0.043138727795264044
-0.0038132165259303847
-0.002609967856992062
-0.008787057039913894
-0.02435059671250794
-0.005985112697583784
-0.08689172282046073
-0.0028749670886922614
-0.06428240381285244
-0.0017076454126518364
-0.006242474686895962
-0.027471011031391386
-6.049232776856293e-06
-0.023742086431954752
-6.414259493245088e-05
-0.0033661251713835052
-8.837166144581336e-05
-0.021882231544436217
-0.00014485178853012562
-0.019764479711785403
-0.01988270187705575
-0.06423109336678179
-0.005004507411212389
-6.980438874428974e-05
-0.023489018209181887
-0.00013069140924536345
-0.02851750700216145
-0.0027306831275731905
-5.725093021415642e-05
-0.00013083212162846473
-0.0601295906120952
-0.043687957418411444
-0.0013576224060169561
-0.049488885437360686
-0.002010373815547813
-0.012897086298770422
-0.0038770984928970303
-0.07774763630467177
-0.008984273904313717
-0.06491677888463539
-0.003959563336370867
-0.054884504527802476
-0.005126290430385355
-0.008674923694269901
-0.035092326863841415
-0.007575271053800617
-0.050132391015457134
-0.08877966922183386
-0.08830063508079716
-0.02031428781577845
-0.0403581380482137
-0.013465928066164043
-0.04024923671436675
-0.017397779221511523
-4.367361715294975e-05
-0.00015207085547090066
-0.03982100310683954
-0.0035119513968559246
-0.06391525781616672
-0.005189540544212624
-0.08142001412679244
-0.004674957588709529
-0.04570999704338016
-0.0053425380881361164
-0.029095040231558365
-0.0782040065950987
-0.05763611805200008
-0.02996355566157036
-0.028821507192940698
-0.0908731209236942
-0.00046807193390943814
-0.00011731826378956879
-0.018898020176084815
-0.0002578664795099516
-0.05173701932916118
-0.08728988654526636
-0.025698010152880573
-0.0469739418942955
-0.02973745191067069
-0.005445477962330799
8.55577451871162e-07
-0.008095211186316972
-0.018363027703545004
-0.01641031585503519
4.9138773629274735e-06
7.0407784116424585e-06
1.3968162886404998e-06
-0.06397762169188036
-0.00490611719547732
-0.005351359063907849
-0.026914072840962935
-0.021348270999134847
-0.004746104326441067
-0.004304355516674497
-0.09557577416519993
-0.05056313021712337
-0.014003886580013601
-0.04698266625563765
-0.011900859141921674
-0.03784581411822302
-0.09303878382609412
-0.04122991084675954
-0.0022566899013517416
-0.05693849351591614
-0.003306163670379422
-0.08862882131544443
-0.010346224407884064
-0.07288216720299923
-0.014046880389553807
-0.09277602079047395
-0.048567402428173076
-0.006157183886022938
-0.0695591773316883
-0.00887376744591573
-0.048217201047773994
-0.0153899014493434
-0.00013836952622868577
-0.00031247939990452703
-0.08002783131500575
-0.021444986273832515
-0.0024194029445076155
-0.0025688435212005544
-0.07108039605383164
-0.02910856356515111
-0.059760399550266054
-0.09347870663251126
-0.021875516219040828
-0.013016725547231767
-0.02343156196934863
-0.07149736118877568
-0.03927635561527025
-0.016803761897630866
-0.009604479298930714
-0.0294545825525822
-0.006923004969109942
-0.03971448038479364
-0.006670290247249403
-0.01888315330192908
-0.004064072722568352
-0.00794247295715685
-0.07171908752350675
-0.08489531670389831
-0.03286486674216531
-0.0035399815735105136
-0.0037930245824271923
-0.019499447717297357
-0.00024898109490080754
-0.037960339552278705
-0.0004431746191298295
-0.048641442920873
-0.00886858449350726
-0.0002361556540719466
-0.0004288126636901562
-0.04923263741036362
-0.022658599099080145
-0.06758075646132806
-0.015857434600856608
-0.005963573632381264
-0.015006242761617212
-0.02702672041887549
-0.0010511563626526093
-0.00023117734482223977
-0.00021730158811254384
-0.08846760852602814
-0.017657227827567425
-0.03195102755547581
-8.089341496824602e-05
-0.0001847845415212926
-0.07759121672129486
-0.00617616100112797
-0.053155288731831486
-0.007146068408836144
-0.05772397513226324
-0.029350289687570714
-0.004060519543521169
-0.07097190923664505
-0.0066084997577437
-0.08145456543517388
-0.004394212238900568
-0.014308728695671133
-0.0031750059780557126
-0.09596740258888843
-0.04291039861117802
-0.09346173502594281
-0.059974912526057404
-0.00047727429802085184
-0.02172967434506653
-0.0007833230139786453
-0.019364122384029344
-0.007216386824303036
-0.05265885163909363
-0.009243739303812632
-5.016167544606611e-06
-0.02319493282480446
-3.527337733175763e-05
-0.022678534985397545
-0.0037827356309638373
2.0284334428955416e-06
-2.1840800263001493e-05
-0.08628030719554174
-0.015491384949001909
-0.007787534810303206
-0.022890909517769724
-0.05830682598666554
-0.000895483722977274
-0.037240237033714596
-0.001360608563782753
-0.026150192445212016
-0.0010693659751265007
-0.002145880995778923
-0.05963993862573494
-0.05311237268687017
-0.009602136863022286
-0.051485660833320956
-0.00974295062030899
-0.0009143856418788148
-0.00013632133190887128
-0.022248344679523392
-0.0002730133472669735
-0.08258869381809873
-0.07356268469657548
-0.07716072138604625
-0.018203187602944607
-0.002620633916505619
-0.06551241656034651
-0.004515244406157728
-0.05844378565812788
-0.000993166242549167
-0.0072032222227203365
-0.0010478014148137035
-0.031362641061620705
-9.528083800852365e-05
-0.03138216527051248
-0.00023397918423289746
-0.04432486519888676
-0.03938432273924717
-0.00042745239722924265
-0.03921923513894627
-0.0007339208624395672
-0.09610347163193086
-0.0273454138468711
-0.0052450901410464445
-0.009345264968632121
-0.048759576545910656
-0.00026869780295431337
-0.029152807411746907
-0.000518941247845111
-0.00953637845815784
-0.005831790047028121
-0.021451411275886935
-0.029163198804127974
-0.013976434781577325
-0.0006764690832415975
-0.04730428571478642
-0.001280178588567999
-0.01718663118127859
-0.0006828993463790703
-3.849673202268892e-05
-6.90969268180621e-05
-0.007481450534438067
-0.014214016859614376
-0.05171324308508772
-0.016169362202119168
-0.02732191038510494
-0.07855531873980669
-0.03100849465718975
-0.04248028808261346
-0.008200148035947798
-0.012972515721756993
-0.0011986061453812754
-9.542535951493456e-05
-0.019969503409610786
-0.00016444341066188355
-0.018744410407913605
-0.019714947430128003
-0.008821578893156165
-0.02291576827934927
-0.04738265395051211
-0.021941727835137554
-0.00014096877021712665
-0.00032487709892222696
-0.024253471216436746
-0.09329492242985556
-0.007860610434675886
-0.002491789350568508
-0.06869417909038236
-0.005996899872605777
-0.0693480093433207
-0.058634935916339594
-0.026529099009088095
-0.07717494166449063
-0.014173302218710278
-0.0583493931396614
-0.01423659300166386
-0.008258842114076967
-0.06956962225649212
-0.011188683524843781
-0.05558190340260002
-0.030109651093531805
-0.06406917315405496
-0.0004914418533700574
-0.000202251073154725
-0.022894778326230398
-0.0005283329157136545
-0.01198437930541229
-0.004319758067583476
-0.08258799235168139
-0.011010691765055113
-0.06999122431722042
-0.051845355161220914