# vtk DataFile Version 1.0
2D Simulation C++
ASCII
DATASET UNSTRUCTURED_GRID
FIELD FieldData 1
NODES 1 2 int
2209 4256

POINTS 2209 double
0.0 0.0 0.0
0.0 1.0 0.0
1.0 1.0 0.0
1.0 0.0 0.0
0.0 0.02500000037252903 0.0
0.0 0.05000000074505806 0.0
0.0 0.07500000298023224 0.0
0.0 0.10000000149011612 0.0
0.0 0.125 0.0
0.0 0.15000000596046448 0.0
0.0 0.17499999701976776 0.0
0.0 0.20000000298023224 0.0
0.0 0.22499999403953552 0.0
0.0 0.25 0.0
0.0 0.2750000059604645 0.0
0.0 0.30000001192092896 0.0
0.0 0.32499998807907104 0.0
0.0 0.3499999940395355 0.0
0.0 0.375 0.0
0.0 0.4000000059604645 0.0
0.0 0.42500001192092896 0.0
0.0 0.44999998807907104 0.0
0.0 0.4749999940395355 0.0
0.0 0.5 0.0
0.0 0.5249999761581421 0.0
0.0 0.550000011920929 0.0
0.0 0.574999988079071 0.0
0.0 0.6000000238418579 0.0
0.0 0.625 0.0
0.0 0.6499999761581421 0.0
0.0 0.675000011920929 0.0
0.0 0.699999988079071 0.0
0.0 0.7250000238418579 0.0
0.0 0.75 0.0
0.0 0.7749999761581421 0.0
0.0 0.800000011920929 0.0
0.0 0.824999988079071 0.0
0.0 0.8500000238418579 0.0
0.0 0.875 0.0
0.0 0.8999999761581421 0.0
0.0 0.925000011920929 0.0
0.0 0.949999988079071 0.0
0.0 0.9750000238418579 0.0
0.02500000037252903 1.0 0.0
0.05000000074505806 1.0 0.0
0.07500000298023224 1.0 0.0
0.10000000149011612 1.0 0.0
0.125 1.0 0.0
0.15000000596046448 1.0 0.0
0.17499999701976776 1.0 0.0
0.20000000298023224 1.0 0.0
0.22499999403953552 1.0 0.0
0.25 1.0 0.0
0.2750000059604645 1.0 0.0
0.30000001192092896 1.0 0.0
0.32499998807907104 1.0 0.0
0.3499999940395355 1.0 0.0
0.375 1.0 0.0
0.4000000059604645 1.0 0.0
0.42500001192092896 1.0 0.0
0.44999998807907104 1.0 0.0
0.4749999940395355 1.0 0.0
0.5 1.0 0.0
0.5249999761581421 1.0 0.0
0.550000011920929 1.0 0.0
0.574999988079071 1.0 0.0
0.6000000238418579 1.0 0.0
0.625 1.0 0.0
0.6499999761581421 1.0 0.0
0.675000011920929 1.0 0.0
0.699999988079071 1.0 0.0
0.7250000238418579 1.0 0.0
0.75 1.0 0.0
0.7749999761581421 1.0 0.0
0.800000011920929 1.0 0.0
0.824999988079071 1.0 0.0
0.8500000238418579 1.0 0.0
0.875 1.0 0.0
0.8999999761581421 1.0 0.0
0.925000011920929 1.0 0.0
0.949999988079071 1.0 0.0
0.9750000238418579 1.0 0.0
1.0 0.9750000238418579 0.0
1.0 0.949999988079071 0.0
1.0 0.925000011920929 0.0
1.0 0.8999999761581421 0.0
1.0 0.875 0.0
1.0 0.8500000238418579 0.0
1.0 0.824999988079071 0.0
1.0 0.800000011920929 0.0
1.0 0.7749999761581421 0.0
1.0 0.75 0.0
1.0 0.7250000238418579 0.0
1.0 0.699999988079071 0.0
1.0 0.675000011920929 0.0
1.0 0.6499999761581421 0.0
1.0 0.625 0.0
1.0 0.6000000238418579 0.0
1.0 0.574999988079071 0.0
1.0 0.550000011920929 0.0
1.0 0.5249999761581421 0.0
1.0 0.5 0.0
1.0 0.4749999940395355 0.0
1.0 0.44999998807907104 0.0
1.0 0.42500001192092896 0.0
1.0 0.4000000059604645 0.0
1.0 0.375 0.0
1.0 0.3499999940395355 0.0
1.0 0.32499998807907104 0.0
1.0 0.30000001192092896 0.0
1.0 0.2750000059604645 0.0
1.0 0.25 0.0
1.0 0.22499999403953552 0.0
1.0 0.20000000298023224 0.0
1.0 0.17499999701976776 0.0
1.0 0.15000000596046448 0.0
1.0 0.125 0.0
1.0 0.10000000149011612 0.0
1.0 0.07500000298023224 0.0
1.0 0.05000000074505806 0.0
1.0 0.02500000037252903 0.0
0.9750000238418579 0.0 0.0
0.949999988079071 0.0 0.0
0.925000011920929 0.0 0.0
0.8999999761581421 0.0 0.0
0.875 0.0 0.0
0.8500000238418579 0.0 0.0
0.824999988079071 0.0 0.0
0.800000011920929 0.0 0.0
0.7749999761581421 0.0 0.0
0.75 0.0 0.0
0.7250000238418579 0.0 0.0
0.699999988079071 0.0 0.0
0.675000011920929 0.0 0.0
0.6499999761581421 0.0 0.0
0.625 0.0 0.0
0.6000000238418579 0.0 0.0
0.574999988079071 0.0 0.0
0.550000011920929 0.0 0.0
0.5249999761581421 0.0 0.0
0.5 0.0 0.0
0.4749999940395355 0.0 0.0
0.44999998807907104 0.0 0.0
0.42500001192092896 0.0 0.0
0.4000000059604645 0.0 0.0
0.375 0.0 0.0
0.3499999940395355 0.0 0.0
0.32499998807907104 0.0 0.0
0.30000001192092896 0.0 0.0
0.2750000059604645 0.0 0.0
0.25 0.0 0.0
0.22499999403953552 0.0 0.0
0.20000000298023224 0.0 0.0
0.17499999701976776 0.0 0.0
0.15000000596046448 0.0 0.0
0.125 0.0 0.0
0.10000000149011612 0.0 0.0
0.07500000298023224 0.0 0.0
0.05000000074505806 0.0 0.0
0.02500000037252903 0.0 0.0
0.5071340476879757 0.5043887619681771 0.0
0.7124810847727254 0.7034588458098816 0.0
0.7039902836622683 0.29630710799319576 0.0
0.2987054024490475 0.7074781545163257 0.0
0.29626097339991003 0.29714230919789253 0.0
0.7770861497186652 0.5070132932764643 0.0
0.5037924488241107 0.22308852365578002 0.0
0.49393180157746264 0.7791250155973446 0.0
0.22454966727110146 0.49771364336732576 0.0
0.8297986066488555 0.8221883951657502 0.0
0.8211117724713975 0.17240603176986233 0.0
0.18210564761139603 0.8306260147881294 0.0
0.17240285465058397 0.18104851897470145 0.0
0.6443249903621096 0.567067042388349 0.0
0.5649973311087564 0.3682949391086581 0.0
0.4432829248339527 0.6358393013196398 0.0
0.36385383712812774 0.4294159450462061 0.0
0.846077476150972 0.6451522898126019 0.0
0.6452551044835222 0.15698268554827802 0.0
0.3517212294957398 0.8434067220394516 0.0
0.15666649947865813 0.35642698459328903 0.0
0.6497669966722516 0.8426668343352098 0.0
0.8432760374672293 0.3597134915756085 0.0
0.16002994301612125 0.6441758675120046 0.0
0.3598221776908796 0.158384677803108 0.0
0.6749567811738753 0.4502753333507501 0.0
0.5848096737960571 0.6773995194332098 0.0
0.44818537473208586 0.3215324401154578 0.0
0.3297550150601615 0.5572771658085075 0.0
0.8833390277760537 0.5332267194232923 0.0
0.532494797316085 0.11492156911467594 0.0
0.4682710303378148 0.8873086690184213 0.0
0.11476436545990965 0.47024285993961135 0.0
0.8990717417249777 0.7435257844989901 0.0
0.7433181336350024 0.10403550953127076 0.0
0.2600497112709473 0.8984680375731267 0.0
0.10444637168305103 0.25980212949313314 0.0
0.7464679758306003 0.8841691250890372 0.0
0.12031313770857252 0.7452526474214485 0.0
0.882620386278718 0.2579853166983157 0.0
0.25715766341425456 0.11985981749622104 0.0
0.7425903662441038 0.6055649079604531 0.0
0.6101802314228262 0.25254152780404143 0.0
0.39673291008568967 0.7490416374241878 0.0
0.255644961870121 0.3960207997677517 0.0
0.5246392821155751 0.5932454309479225 0.0
0.9002136227731022 0.8871282484043281 0.0
0.88583313686274 0.10195530950840741 0.0
0.11722852761843905 0.9010146188460771 0.0
0.10244899916436753 0.11704830925047878 0.0
0.763091921874963 0.3942016749483782 0.0
0.24018592601330854 0.6111912630485162 0.0
0.3920829997905852 0.2374371997320884 0.0
0.8988309117600896 0.4387324344219159 0.0
0.43791413782774974 0.10376386227334011 0.0
0.5663604603592017 0.8959683661224822 0.0
0.10427881166276139 0.5649559615477676 0.0
0.7894987002357401 0.7437698341310152 0.0
0.7436936944547562 0.2133077887370243 0.0
0.2586103432777509 0.7901043980093344 0.0
0.21325327415749115 0.25816387197954915 0.0
0.721964663915215 0.8020482939030747 0.0
0.7953026106793283 0.28526234833826764 0.0
0.20739958108569967 0.718983813289405 0.0
0.2888849264641708 0.20262574505680517 0.0
0.5954177623801381 0.49618528450454885 0.0
0.4925058067609066 0.41317650171935116 0.0
0.4265702500645953 0.5477765460690214 0.0
0.6335923507289398 0.7594639985420913 0.0
0.6530247809223302 0.3563793845813173 0.0
0.49746577561681743 0.693690107382323 0.0
0.35551853417711776 0.6436455917431138 0.0
0.35097935235016003 0.34853935215498283 0.0
0.9176004441038037 0.8168359475616669 0.0
0.8163093385891397 0.08529875013495936 0.0
0.18643239903463096 0.9180236187459361 0.0
0.08524919762898388 0.18585636729427607 0.0
0.8293559759484584 0.9113019520038985 0.0
0.09246193939252599 0.8298534506427037 0.0
0.9104453552870484 0.17334870650351777 0.0
0.17347170281624996 0.09204948404704076 0.0
0.6995519139000235 0.5197736134071392 0.0
0.6501041847382935 0.6499071188099237 0.0
0.5143792145258731 0.30515820849295194 0.0
0.3016377466989171 0.48530798058338454 0.0
0.9189889164369387 0.6093917239396255 0.0
0.6145893396672102 0.08718979551084906 0.0
0.3972928619613775 0.9217792179422949 0.0
0.08458718585259871 0.3884340431485257 0.0
0.6655711271426489 0.9203970765884804 0.0
0.08300884785124531 0.6637761777996262 0.0
0.9205222880538976 0.3399730132512747 0.0
0.33939871066701055 0.08255569003760924 0.0
0.8227079736799303 0.43831739944022013 0.0
0.568302035962447 0.8174377153943587 0.0
0.4368322042384539 0.17820573660069705 0.0
0.1800572397851983 0.5654173965730783 0.0
0.435375444088172 0.4593035101626377 0.0
0.8196284371407585 0.5715398139668151 0.0
0.5696898751788709 0.1829729119895088 0.0
0.43221009714121 0.8201624428752742 0.0
0.18262122648405626 0.4326301230594571 0.0
0.7726747049188226 0.6692515459547876 0.0
0.6693086061422994 0.22731675824539688 0.0
0.33296386559306135 0.7766402169554267 0.0
0.2276801592582727 0.3322996920464018 0.0
0.9303464099273425 0.6860280157118893 0.0
0.686320304661601 0.07348725263002917 0.0
0.31424006731282983 0.9282918866993873 0.0
0.07554506499331601 0.3131748313795931 0.0
0.5628508264819366 0.7413890121493074 0.0
0.6037378432553597 0.4209097221281704 0.0
0.3766761223353496 0.5000014397369908 0.0
0.7352525559797638 0.4607245599421798 0.0
0.45712257597073547 0.264013337803631 0.0
0.26804143671209507 0.5437603630039854 0.0
0.588406981974585 0.6152080465430446 0.0
0.4195559423815168 0.3884094198710711 0.0
0.5733616409519565 0.5432380695827251 0.0
0.5496919197563068 0.45000725712551315 0.0
0.9352026667896035 0.49818421372467125 0.0
0.49907721971099445 0.06771939228307004 0.0
0.5031789988277137 0.9334169722559276 0.0
0.06804806318120643 0.5039048236067701 0.0
0.8461737365339215 0.5002364028753333 0.0
0.4984345401678877 0.15513844323862241 0.0
0.5005245305745354 0.8433694908873326 0.0
0.15571713091034622 0.5039743674681185 0.0
0.8457185733954857 0.6994329559305668 0.0
0.6992066353034387 0.15720718875113587 0.0
0.3021596601157971 0.8450229557162231 0.0
0.15738607872585153 0.3030701894418678 0.0
0.7726347654110921 0.8388068385445289 0.0
0.8362330961551199 0.23048529814670204 0.0
0.16674181600372534 0.77313736519581 0.0
0.2295429514358586 0.16548819786839258 0.0
0.762766449752678 0.3288444980369343 0.0
0.23922927197896096 0.6754210101908522 0.0
0.327346804886969 0.2385049223801705 0.0
0.6404809201884236 0.3029222663457773 0.0
[...]
POINT_DATA 2209
SCALARS Psi double
LOOKUP_TABLE default
0.0
0.0
0.0
0.0
0.0
0.0
0.0
0.0
0.0
0.0
0.0
0.0
0.0
0.0
0.0
0.0
0.0
0.0
0.0
0.0
0.0
0.0
0.0
0.0
0.0
0.0
0.0
0.0
0.0
0.0
0.0
0.0
0.0
0.0
0.0
0.0
0.0
0.0
0.0
0.0
0.0
0.0
0.0
0.0
0.0
0.0
0.0
0.0
0.0
0.0
0.0
0.0
0.0
0.0
0.0
0.0
0.0
0.0
0.0
0.0
0.0
0.0
0.0
0.0
0.0
0.0
0.0
0.0
0.0
0.0
0.0
0.0
0.0
0.0
0.0
0.0
0.0
0.0
0.0
0.0
0.0
0.0
0.0
0.0
0.0
0.0
0.0
0.0
0.0
0.0
0.0
0.0
0.0
0.0
0.0
0.0
0.0
0.0
0.0
0.0
0.0
0.0
0.0
0.0
0.0
0.0
0.0
0.0
0.0
0.0
0.0
0.0
0.0
0.0
0.0
0.0
0.0
0.0
0.0
0.0
0.0
0.0
0.0
0.0
0.0
0.0
0.0
0.0
0.0
0.0
0.0
0.0
0.0
0.0
0.0
0.0
0.0
0.0
0.0
0.0
0.0
0.0
0.0
0.0
0.0
0.0
0.0
0.0
0.0
0.0
0.0
0.0
0.0
0.0
0.0
0.0
0.0
0.0
0.0
0.0
-0.059699322007670995
-0.09008888007363391
-0.013761423245491757
-0.05721675528712469
-0.013754213330822097
-0.03486932739306929
-0.01209296823159328
-0.09248922444983337
-0.024062912671519714
-0.06822735999565363
-0.0015082815581607383
-0.03830361118398352
-0.0022637988991499494
-0.0718833507751755
-0.03206473545047593
-0.07721751849236326
-0.03466784433696859
-0.03969936223231165
-0.004700457567797481
-0.06928131165969574
-0.007435180386890761
-0.0910148278989607
-0.007229417771805357
-0.021573757525253687
-0.005190246462284215
-0.04087022499522515
-0.09534413973894516
-0.023842883730542566
-0.04802624558261738
-0.013561372570814103
-0.0033444048207356713
-0.07185059905650665
-0.007390258027371764
-0.031197800597675823
-0.0011517571976217215
-0.05097664899076486
-0.0019393342803166235
-0.07359606216990788
-0.017635390107363643
-0.0015719063646982643
-0.0019390836837610938
-0.06458381372768622
-0.013635175779733565
-0.07887262363744743
-0.019322205677128276
-0.07892160202611685
-0.04123189825710458
-9.531309712514315e-05
-0.028041523441510428
-0.00031471570914179376
-0.01950113598274853
-0.03643594414175726
-0.012160592144960581
-0.005430783037003812
-0.0026953607567799923
-0.07277624955055485
-0.008542049628098534
-0.07676857079495505
-0.005232607176176966
-0.053276900320235736
-0.006557361972272361
-0.09252154778383963
-0.006678715615965967
-0.036971295731426865
-0.006383354400372198
-0.058180346718906276
-0.04052614409641554
-0.0611215822582098
-0.10061462191587459
-0.025461521551282854
-0.09079767930114725
-0.06324128839320081
-0.022684421220381615
-0.029284125184081893
-0.00030962322273621383
-0.03983062399695086
-0.0006364405471564126
-0.05486893546171723
-0.01564020425328864
-0.00024824741275856463
-0.0005558842423259462
-0.05307246779664603
-0.08931034977070562
-0.022341584407520893
-0.03454421366830843
-0.01087956435673974
-0.0016329075669169303
-0.05506272273123228
-0.0029138764347551543
-0.06106237860391789
-0.007444380778744548
-0.0014647778134043216
-0.0013723356955542038
-0.015940926028840247
-0.09457854793083942
-0.007585333200485926
-0.021278353770358534
-0.0461114414743018
-0.0356586884866587
-0.00778414728391992
-0.08214616765924437
-0.013766064261100639
-0.07007049134901937
-0.009079750179855944
-0.06791416719103073
-0.011815981759475307
-0.012887369488630918
-0.0008524743274193496
-0.047729094171411746
-0.0015461549149014893
-0.09912857742192877
-0.04076345471335389
-0.04689821895573101
-0.03423647087107934
-0.016431135217617812
-0.03560978130979594
-0.08528378997698961
-0.032811361931310803
-0.06978179147441751
-0.048695468226368076
-0.0034379793374919167
-0.0012519416868052849
-0.052309020507162955
-0.00330566194877603
-0.01842325788314795
-0.006030831988777481
-0.08555216693807412
-0.013961756770703134
-0.049069978503593875
-0.003657183122425811
-0.06181197347990223
-0.005483640495469776
-0.08102460712484197
-0.002484407101467266
-0.03056907142779637
-0.0030592266425397484
-0.012369445485555805
-0.04136640705931656
-0.010202694683434554
-0.018465466605253743
-0.07064425830269971
-0.020328377558364627
-0.05655516067773921
-0.0017922896129374747
-0.0052036309111406324
-0.001275283482056242
-0.06310469061076507
-0.08447182994416708
-0.017564092596217096
-1.397027206308214e-05
-0.024433009698535433
1.652904694673798e-05
-0.07031023442272283
-0.004306162639567622
-0.0009588433125642049
-0.047566646587005726
-0.0021317245321511454
-0.015418046959006405
-0.0003330647234676013
-0.03904494502986784
-0.0006248957390627902
-0.04689868013921081
-0.006767997566923068
-0.0002752650725524985
-0.0004966307447455527
-0.05877106763313052
-0.0021097930708800245
-0.04948280553655899
-0.0031164252675686334
-0.08725748145528492
-0.004508425067777245
-0.022987497858838003
-0.004185642285365559
-0.0815900832246748
-0.05896300170246726
-0.031457252013021395
-0.04958210637300063
-0.021781026408011613
-0.097673173065383
-0.028324414852972355
-0.07328744059682074
-0.014722229871443355
-0.024163843809763122
-0.01982731931231098
-3.230731873968918e-05
-0.03023335139273949
-0.0001422823288028932
-0.040910189530481256
-0.01101878650393088
-3.375816609514137e-05
-0.0001757780550715627
-0.08950372652819613
-0.028468395762019653
-0.019559957156665673
-0.04921834640906482
-0.0871414085635972
-0.024745555201392357
-0.004332038049521653
-0.07345895550547918
-0.007887920232547538
-0.08817984388920719
-0.008159441729720834
-0.05085340730162645
-0.008812368237493132
-0.09750524211863734
-0.053772774230664976
-0.009206216412965536
-0.0761125866264882
-0.013658453047209564
-0.04894383604445186
-0.005612744074547406
-0.0004810646663373037
-0.000664452904809948
-0.050187570250272276
-0.00043694359557151346
-0.03527727989529919
-0.0008765511204547327
-0.01530461295300545
-0.008854951010594506
-0.027741558490176007
-0.08349838103933586
-0.07734644720948723
-0.003144352469533794
-0.0432420983374622
-0.004090460009214722
-0.019395783038565432
-0.05102974124800092
-0.015718523647431416
-0.0051842977444687905
-0.08010718900835036
-0.0033524448868078767
-0.012939014532013886
-0.09800812216056948
-0.07425290381071947
-0.0960444756231552
-0.05588011010832334
-0.07196370963660725
-0.00884665964570411
-0.03193808588587027
-0.007031871293811362
-0.038633094119805346
-0.024143026635237992
-0.026847165248212228
-0.001319299642567423
-0.0007749940386018581
-0.044250645933625606
-0.0026482194596367755
-0.0703272541203187
-0.025825513164241864
-0.0010833041081415831
-0.0016338596806945117
-0.009077832012160978
-0.0033070050678574827
-0.07534358148552009
-0.008623797111112991
-0.024280056921045328
-0.01207045413610426
-0.030786448567819417
-0.04810250463778971
-0.061994771968183406
-0.030848614061165902
-0.002562788898274615
-0.06174608892487988
-0.004168840335372554
-0.005845780358960665
-0.0002253273856880633
-0.02936260491343743
-0.00036250939027341835
-0.0032675813244007965
-0.0003508350433954028
-0.03479154702252075
-0.0007994490119437591
-0.031872419390742986
-0.09591118277845388
-0.035855042462194335
-0.04857177043921491
-0.05501530548449485
-0.09991270221642268
-0.04879422565572824
-0.0010104023006439519
-0.04475635582974619
-0.0016876185426259744
-0.08236996365573974
-0.00972267815396448
-0.05982078396730709
-0.01113723914107391
-0.05379251444904551
-0.00028014118871448677
-0.02553002140375656
-0.0006356258158795791
-0.06481721394495074
-0.025370394404352677
-0.09478136830147843
-0.07037243016138463
-0.03789932216194455
-0.042656730836790356
-0.09621743916638259
-0.03254809393065446
-0.0394673901251865
-0.06693218066031138
-0.04156872123198131
-0.04366610092177552
-0.016768046523565814
-0.020913227316712444
-0.031360461813907003
-0.08301126211369281
-0.09178042731658881
-0.009621542290109076
-7.523280031434745e-05
-0.029384127810766006
-0.0001900354768459223
-0.038157472984233526
-0.005528990100133041
-7.523235189926315e-05
-0.0002216751294859885
-0.042308888948515484
-0.050884280655227605
-0.05527674868656966
-0.0119205444281933
-0.018644973444583886
-0.023651604708727583
-0.0060989846695564225
-0.08688844521308739
-0.012420494411189593
-0.08015530937104683
-0.015394928080007511
-0.003639315065667927
-0.0030664144746777536
-0.03543697346756757
-0.002143072447644253
-0.0003902895891945453
-0.00040461276099205534
-0.002859600957614459
-0.0005733331518567608
-0.03347528679960318
-0.0011586540949178848
-0.012283512061865665
-0.005216613543283429
-0.0865090439534773
-0.014361637777105361
-0.029489180587378636
-0.009859445786140696
-0.09112436797563797
-0.0056178292686030916
-0.01886232736534372
-0.013277892243642082
-0.0733486888031503
-0.016980567966423808
-0.06516759354835142
-0.016326840458506246
-0.0007440190215124748
-0.0011559282924595469
-0.08502606419355142
-0.03165627790535944
-0.0006478088106404728
-0.045159185532841234
-0.0011658405501165491
-0.025852629410979842
-0.0031216896729171955
-0.06667267126248971
-0.005253456678004145
-0.014007260209225892
9.583282607761086e-06
-0.02295526681375946
-2.8184957718015797e-05
-0.0071189360209379425
-0.025927942436858312
-2.116669649776673e-05
1.2191704614184439e-05
-0.08218131120484397
-0.05722816238927687
-0.006070830565898329
-0.06690124934664717
-0.008634733301741752
-0.07039875174048431
-0.012304253883329798
-0.0018024303901042664
-0.0018808214758298518
-0.09056133475875582
-0.019189238560469217
-0.06043120948836926
-0.018172434245946008
-0.011089369871710436
-0.019978974051777513
-0.039466642428013975
-0.02741851383038931
-0.0230072016274971
-0.008937419784427513
-0.021084465807618795
-0.010318769023747086
-0.0020823153055949542
-0.06217003363618126
-0.004292848206165474
-0.08014020177192761
-0.04979072481589461
-0.06312059211672139
-0.07687218345230508
-0.07235192471500117
-0.018215725097006953
-0.022675050331502262
-0.03731142060503298
-0.005926788265048461
-0.07633197780487581
-0.009823548895915971
-0.01361902062530674
-0.009449293781778053
-0.034321480390264975
-0.10040974426930081
-0.04893122542988614
-0.07189819819724266
-0.006664083621389981
-0.06075232871641976
-0.008560518158229726
-0.0013749459518474568
-0.0004409038714054081
-0.032941006068150945
-0.0011158380128679546
-0.07874283161129583
-0.07672043108802305
-0.07913201098370469
-0.03902392069229444
-0.03451851703413254
-0.019441395442696654
-0.043616935612906006
-0.0909638964508162
-0.08938850128160773
-0.0853037439558656
-0.0034441952315849168
-0.02836945186134411
-0.0037228350689197916
-0.08709544894183141
-0.004576748441701899
-0.04125278235063323
-0.005266845163637329
-0.051105013934446365
-0.002437338526993396
-0.05491572243716899
-0.0036772214387085387
-0.02332894316641261
-0.0011906122036814601
-0.05251549799526293
-0.002092746909706318
-0.0321219506031112
-0.013678856826635551
-0.029562851590098096
-0.09688965479917745
-0.014002684498192006
-0.06615596163004976
-0.01577124512259188
-0.04864608408404256
-0.02652206764547248
-0.0034458003610160935
-0.0002255600797141421
-0.026097987027699915
-0.0003658127971592294
-0.037902830770478194
-0.03788687831271249
-0.07059462273325699
-0.015168671148077698
-0.0014931789288529912
-0.054376344801614476
-0.002517696785697933
-0.011199045041037912
-0.04894571220048868
-0.010724348402302356
-0.03398237559946233
-0.00015278157867197844
-0.03427335887456271
-0.0003958999635841857
-0.03276185388133493
-0.0021706332290700667
-0.00022855831060579766
-0.00030858011714434184
-0.0008537292218551147
-0.0003946227551868804
-0.03097725166146244
-0.001140722279674404
-0.006045570096666215
-0.0015400826108481918
-0.056531378161114074
-0.003645418966868971
-0.010816814173389299
4.145922279430852e-06
-0.01250136503104196
5.319970373698278e-06
-0.08124407768076891
-0.027297683156282847
-0.015583986685684512
-0.03970191135516362
-0.06109786440912747
-0.0006360603644732486
-0.02981579630748343
-0.0011421846894288062
-0.030110063441265055
-0.0024587417836242796
-9.511891139359077e-05
-0.00020072977121239234
-0.008699845602707635
-0.018023458196595395
-0.0281305855683445
-0.09692109999889931
-0.05282406285101004
-0.06258719537072638
-0.0072209904774495175
-0.00195374038390895
-0.001565732158105948
-0.0928233925611705
-0.09927863877527039
-0.07702680137786398
-0.024692525822158563
-0.0017918063202783312
-0.00230144141715386
-0.0580968220027641
-0.0007029907821832292
-0.009234590597656115
-0.0009644778249924487
-0.08703386511451822
-0.08824691782184686
-0.018544513264577477
-0.0005502695929814864
-0.043705777361256415
-0.0009819807855106142
-0.05522633360273562
-0.0031270068214217885
-0.001485319152618974
-0.057754127220643825
-0.004514701864803505
-0.032484647811290825
-0.0015158109833088398
-0.0005422405240450703
-0.0003978762729056687
-0.08527674135533309
-0.06521298536126423
-0.08197332122198131
-0.04561992209532606
-0.08427961012889387
-0.0075392239820053514
-0.08193170603255295
-0.0038968797937771835
-0.012507884081564741
-0.0719329883826869
-0.04566067104281437
-0.01989365187881516
-0.02999367792546762
-0.09905099136576599
-0.016566746746261348
-0.022916571547269754
-0.009320956757513552
-2.3048400284941597e-05
-6.028678530586368e-06
-7.39423657475918e-05
-0.028153139360696456
-0.004081034617882486
-0.025617022210433698
-9.259724646120001e-05
-0.024028401547536472
-0.05421413795786144
-0.018940212639745938
-0.06333668358176225
-0.06369852482836351
-0.017380117464579122
-0.041713361893174414
-0.0125557594491284
-0.07917166918931252
-0.055699405989217396
-0.07486754570920295
-0.0020110715217757746
-0.03641133826993985
-0.0027800151509328793
-0.09376610283899751
-0.06952718061099607
-0.0031328772057612176
-0.06701681773561251
-0.0020046203016560217
-0.04930485418169671
-0.043891567957110016
-0.004286876238432254
-0.002920703034125039
-0.00974821623565425
-0.02633406465490144
-0.0067449620916498485
-0.09083682244696527
-0.0031600006550582082
-0.06501429961393475
-0.0018930195941844175
-0.0068591347857017305
-0.027667370018905926
8.417874766956667e-06
-0.023698776245597825
-6.600588113222564e-05
-0.0034949619224048226
-8.527597000429351e-05
-0.021963737282935134
-0.00016103126393243982
-0.022275487122729913
-0.022708739861430266
-0.0690532232085163
-0.00507961787800085
-6.304499467973884e-05
-0.02352869577481044
-0.00014300840430874563
-0.028574802301246836
-0.002726532581985704
-4.744225768668584e-05
-0.0001414635768682716
-0.06559729812854385
-0.04467381695578528
-0.0014037374755242187
-0.05001506180031915
-0.0022604872019138795
-0.014069797381013728
-0.004330385825277482
-0.07931368111936211
-0.010126158554554838
-0.06686743614334746
-0.0042934599398973166
-0.05618256216481089
-0.0058096036144206975
-0.009624034732390683
-0.03736785181909599
-0.00857102183313982
-0.054640144428117175
-0.09033038023703653
-0.08971330396393778
-0.022739634739842415
-0.04403541393078597
-0.015353335414076158
-0.040420443440941284
-0.01726899271314726
-2.0582832928927606e-05
-0.00015888139796720952
-0.04154057918253206
-0.0038206542728460666
-0.0651421595897564
-0.005908497885838081
-0.08330973886085524
-0.005060198676323598
-0.04728681265080187
-0.006017363390649537
-0.03317346033510288
-0.08443016291561097
-0.06392294347067165
-0.03403608280186395
-0.032828701286304114
-0.09326222280747128
-0.0005033284818643346
-0.00012756699385574975
-0.018878612105571256
-0.00029131411148475625
-0.05708147738591003
-0.08941606572315626
-0.029443996873717952
-0.052905280485799185
-0.03399941679910059
-0.005457832159738508
1.7023113507679324e-06
-0.008009013696966416
-0.018544368474779607
-0.01639723950659363
6.535266663065849e-06
9.307041082939311e-06
2.6206558614029594e-06
-0.06985685132561399
-0.005379456272055549
-0.005906889392588989
-0.028338477838278673
-0.022754219722475894
-0.005318024522252098
-0.004837687595039574
-0.09962879805122304
-0.055950169921559066
-0.01563778330633552
-0.050312033508619666
-0.013577845806987348
-0.04234216843373295
-0.09701477238546466
-0.042610740124073225
-0.0023954363410417755
-0.05781830467719496
-0.0037516924715984366
-0.09407815864334679
-0.011591744837446035
-0.07616664798419844
-0.016009757691236574
-0.09762536131774663
-0.051195094568336964
-0.006807017400936941
-0.07167141665788422
-0.010132121944035838
-0.048517433858959
-0.015345143695813954
-0.00010903215802245653
-0.00033390229924022046
-0.08100176086740458
-0.022296376424681425
-0.002584603365290273
-0.002862212191813184
-0.07649131462024512
-0.03255343557412414
-0.0650805839891027
-0.09573791881263233
-0.024805770578814595
-0.014720368203041213
-0.026430776181492435
-0.07772148382151715
-0.042930956148813516
-0.01874397483991935
-0.010886296682383627
-0.03228206081643994
-0.007619236833619885
-0.041754514996263155
-0.00754720908554658
-0.02054781613688096
-0.004548389815559655
-0.009028173319980305
-0.07581483669892779
-0.0862495647450624
-0.03412562219338327
-0.0038036057665949098
-0.004256240598465273
-0.0198675331147839
-0.00023322449080113907
-0.03798275545848896
-0.00048570791658295297
-0.04886720067942871
-0.008918903481883811
-0.00021635479620474562
-0.00045773492736241164
-0.05421517465674494
-0.025834519050243934
-0.07414933780430334
-0.017513194911043355
-0.006716960888510607
-0.016710861976718235
-0.027241259421261522
-0.0011564245343353321
-0.00024250801847210343
-0.00023969597698238407
-0.09334537645121117
-0.01795875003199478
-0.03207402797954448
-6.430787390630849e-05
-0.00019730025431012507
-0.08013081972591081
-0.006768460924828604
-0.0551543397376682
-0.008102088415609995
-0.06412518177356163
-0.03139468602380052
-0.004465137564464991
-0.07242814588814052
-0.007536304635529991
-0.08267393912252387
-0.004814776776805488
-0.015445100246941944
-0.0035451471641769062
-0.09915097115099561
-0.048071756347328076
-0.09549107299764352
-0.060426132517719916
-0.0004473420276538938
-0.021922757416198452
-0.0008621455267135905
-0.022148948190538722
-0.007787989559326898
-0.0530126239129659
-0.009366772519405668
2.3144128867401795e-06
-0.023240225380521912
-3.5948328492699325e-05
-0.022682715240909868
-0.0037322004634356832
8.140510430001702e-06
-2.1685953848401993e-05
-0.09191896648064625
-0.017112982507198067
-0.008800289542974895
-0.025130005184683075
-0.05914000824241907
-0.0008842919380605162
-0.03750345076950362
-0.0015066480033167286
-0.02945013306870528
-0.0011672096123437586
-0.0024293361630145175
-0.0633655012561067
-0.05715891006750443
-0.010669333450076167
-0.05424606272352085
-0.011097225535798387
-0.0009861178829393008
-0.00014305145288954178
-0.022322709824823907
-0.00031167974284951273
-0.08660187854921814
-0.07494357599808424
-0.07904644093306214
-0.01953542352756227
-0.0028633118462984167
-0.06643247788065103
-0.005137446439008907
-0.05886184291952046
-0.0010541840907007508
-0.007634096308168011
-0.001153789549082556
-0.03168348097577275
-7.152926362896104e-05
-0.03142361406972252
-0.0002499917701453311
-0.048936665371157755
-0.03994745778250826
-0.00040129352754073196
-0.03931620210920675
-0.0008083600260357384
-0.09868307853492941
-0.029609358776206615
-0.005856927965864706
-0.010663057498531648
-0.04916305690947378
-0.000233787430779843
-0.02917149788809025
-0.0005659777453576764
-0.010562218639857677
-0.006555121706205672
-0.023398933698326296
-0.03170683500677386
-0.014476726223959442
-0.0007004839018179853
-0.047589119568098144
-0.0014488495864807892
-0.017412612173294498
-0.0006992449492682755
-3.58605023270882e-05
-7.36029669010398e-05
-0.008429775489441247
-0.01610943093919221
-0.05786960936308006
-0.01839482895505682
-0.0307938038847605
-0.08395820391916387
-0.03530728077150666
-0.04560397908056207
-0.00918689711937183
-0.0147783507928364
-0.001256382388437871
-0.00010083266545422522
-0.019880482130858478
-0.00018952186328244518
-0.021445851184003228
-0.02187308044666491
-0.009969980874088737
-0.02541683950229204
-0.0476628259879541
-0.02188323084867486
-0.00010962162383769226
-0.0003492733396879037
-0.02745814786861915
-0.09565602953475183
-0.008603278386913818
-0.0027720838155219493
-0.069746912947095
-0.006763298420441042
-0.07595633517543256
-0.06177898394207301
-0.030336704839435947
-0.07975517854459117
-0.01587409506083528
-0.06207494213637694
-0.016244025403834756
-0.009193684397401113
-0.07224158532810049
-0.012752647689708728
-0.061386382352290554
-0.034124420557821444
-0.06929223282931089
-0.0005179301877163063
-0.00021694586409511622
-0.02291941567938051
-0.0006033867563592145
-0.013198848753948826
-0.004839464864972997
-0.08434263899629545
-0.012304159137391937
-0.07473732363156653
-0.05785814446142918