# vtk DataFile Version 1.0
2D Simulation C++
ASCII
DATASET UNSTRUCTURED_GRID
FIELD FieldData 1
NODES 1 2 int
2209 4256

POINTS 2209 double
0.0 0.0 0.0
0.0 1.0 0.0
1.0 1.0 0.0
1.0 0.0 0.0
0.0 0.02500000037252903 0.0
0.0 0.05000000074505806 0.0
0.0 0.07500000298023224 0.0
0.0 0.10000000149011612 0.0
0.0 0.125 0.0
0.0 0.15000000596046448 0.0
0.0 0.17499999701976776 0.0
0.0 0.20000000298023224 0.0
0.0 0.22499999403953552 0.0
0.0 0.25 0.0
0.0 0.2750000059604645 0.0
0.0 0.30000001192092896 0.0
0.0 0.32499998807907104 0.0
0.0 0.3499999940395355 0.0
0.0 0.375 0.0
0.0 0.4000000059604645 0.0
0.0 0.42500001192092896 0.0
0.0 0.44999998807907104 0.0
0.0 0.4749999940395355 0.0
0.0 0.5 0.0
0.0 0.5249999761581421 0.0
0.0 0.550000011920929 0.0
0.0 0.574999988079071 0.0
0.0 0.6000000238418579 0.0
0.0 0.625 0.0
0.0 0.6499999761581421 0.0
0.0 0.675000011920929 0.0
0.0 0.699999988079071 0.0
0.0 0.7250000238418579 0.0
0.0 0.75 0.0
0.0 0.7749999761581421 0.0
0.0 0.800000011920929 0.0
0.0 0.824999988079071 0.0
0.0 0.8500000238418579 0.0
0.0 0.875 0.0
0.0 0.8999999761581421 0.0
0.0 0.925000011920929 0.0
0.0 0.949999988079071 0.0
0.0 0.9750000238418579 0.0
0.02500000037252903 1.0 0.0
0.05000000074505806 1.0 0.0
0.07500000298023224 1.0 0.0
0.10000000149011612 1.0 0.0
0.125 1.0 0.0
0.15000000596046448 1.0 0.0
0.17499999701976776 1.0 0.0
0.20000000298023224 1.0 0.0
0.22499999403953552 1.0 0.0
0.25 1.0 0.0
0.2750000059604645 1.0 0.0
0.30000001192092896 1.0 0.0
0.32499998807907104 1.0 0.0
0.3499999940395355 1.0 0.0
0.375 1.0 0.0
0.4000000059604645 1.0 0.0
0.42500001192092896 1.0 0.0
0.44999998807907104 1.0 0.0
0.4749999940395355 1.0 0.0
0.5 1.0 0.0
0.5249999761581421 1.0 0.0
0.550000011920929 1.0 0.0
0.574999988079071 1.0 0.0
0.6000000238418579 1.0 0.0
0.625 1.0 0.0
0.6499999761581421 1.0 0.0
0.675000011920929 1.0 0.0
0.699999988079071 1.0 0.0
0.7250000238418579 1.0 0.0
0.75 1.0 0.0
0.7749999761581421 1.0 0.0
0.800000011920929 1.0 0.0
0.824999988079071 1.0 0.0
0.8500000238418579 1.0 0.0
0.875 1.0 0.0
0.8999999761581421 1.0 0.0
0.925000011920929 1.0 0.0
0.949999988079071 1.0 0.0
0.9750000238418579 1.0 0.0
1.0 0.9750000238418579 0.0
1.0 0.949999988079071 0.0
1.0 0.925000011920929 0.0
1.0 0.8999999761581421 0.0
1.0 0.875 0.0
1.0 0.8500000238418579 0.0
1.0 0.824999988079071 0.0
1.0 0.800000011920929 0.0
1.0 0.7749999761581421 0.0
1.0 0.75 0.0
1.0 0.7250000238418579 0.0
1.0 0.699999988079071 0.0
1.0 0.675000011920929 0.0
1.0 0.6499999761581421 0.0
1.0 0.625 0.0
1.0 0.6000000238418579 0.0
1.0 0.574999988079071 0.0
1.0 0.550000011920929 0.0
1.0 0.5249999761581421 0.0
1.0 0.5 0.0
1.0 0.4749999940395355 0.0
1.0 0.44999998807907104 0.0
1.0 0.42500001192092896 0.0
1.0 0.4000000059604645 0.0
1.0 0.375 0.0
1.0 0.3499999940395355 0.0
1.0 0.32499998807907104 0.0
1.0 0.30000001192092896 0.0
1.0 0.2750000059604645 0.0
1.0 0.25 0.0
1.0 0.22499999403953552 0.0
1.0 0.20000000298023224 0.0
1.0 0.17499999701976776 0.0
1.0 0.15000000596046448 0.0
1.0 0.125 0.0
1.0 0.10000000149011612 0.0
1.0 0.07500000298023224 0.0
1.0 0.05000000074505806 0.0
1.0 0.02500000037252903 0.0
0.9750000238418579 0.0 0.0
0.949999988079071 0.0 0.0
0.925000011920929 0.0 0.0
0.8999999761581421 0.0 0.0
0.875 0.0 0.0
0.8500000238418579 0.0 0.0
0.824999988079071 0.0 0.0
0.800000011920929 0.0 0.0
0.7749999761581421 0.0 0.0
0.75 0.0 0.0
0.7250000238418579 0.0 0.0
0.699999988079071 0.0 0.0
0.675000011920929 0.0 0.0
0.6499999761581421 0.0 0.0
0.625 0.0 0.0
0.6000000238418579 0.0 0.0
0.574999988079071 0.0 0.0
0.550000011920929 0.0 0.0
0.5249999761581421 0.0 0.0
0.5 0.0 0.0
0.4749999940395355 0.0 0.0
0.44999998807907104 0.0 0.0
0.42500001192092896 0.0 0.0
0.4000000059604645 0.0 0.0
0.375 0.0 0.0
0.3499999940395355 0.0 0.0
0.32499998807907104 0.0 0.0
0.30000001192092896 0.0 0.0
0.2750000059604645 0.0 0.0
0.25 0.0 0.0
0.22499999403953552 0.0 0.0
0.20000000298023224 0.0 0.0
0.17499999701976776 0.0 0.0
0.15000000596046448 0.0 0.0
0.125 0.0 0.0
0.10000000149011612 0.0 0.0
0.07500000298023224 0.0 0.0
0.05000000074505806 0.0 0.0
0.02500000037252903 0.0 0.0
0.5054392406291351 0.5027012217894007 0.0
0.7109054335372655 0.7026743496860579 0.0
0.7024096855205083 0.294453972611384 0.0
0.29676124685390715 0.7065654549088382 0.0
0.29474605483491384 0.29632169647493 0.0
0.7764393678674818 0.5051685402355642 0.0
0.5017357440830746 0.22180731174373103 0.0
0.4914918291273751 0.7781058157014756 0.0
0.22252477645402347 0.49709664536069303 0.0
0.8283423711202479 0.820844391805176 0.0
0.8199529801317528 0.1711146361786208 0.0
0.17975016723242554 0.82934913004853 0.0
0.17071331559298156 0.1799250870908701 0.0
0.642764342559094 0.5657610008226601 0.0
0.5634917795676291 0.3670061794289137 0.0
0.4410379459639369 0.6352250105257641 0.0
0.36209394312731613 0.4283809907726501 0.0
0.8445265249146482 0.6440386262274288 0.0
0.6437696213225921 0.15545523893066918 0.0
0.3504160318237958 0.842095201804373 0.0
0.15555459645108763 0.3553535096668603 0.0
0.6481201817928015 0.8420585798680341 0.0
0.841765738012139 0.35816348951065646 0.0
0.15762339870444403 0.6433412553994827 0.0
0.3585207956851894 0.15711692792909318 0.0
0.6741375292216312 0.4489264581210568 0.0
0.5834911663972265 0.6772064884791182 0.0
0.44653315650629954 0.320278531278188 0.0
0.3281012461873973 0.5565684955307514 0.0
0.8821089017468772 0.5315586410820605 0.0
0.531123314750604 0.11326302852767187 0.0
0.46702844174913105 0.8858771317860935 0.0
0.11284450863185398 0.4687483666189904 0.0
0.8970870658835818 0.7418256932435091 0.0
0.7417471493426083 0.10246998044662889 0.0
0.2585029928478868 0.8970832086203993 0.0
0.1031969577839415 0.2581592844144746 0.0
0.7447412785970695 0.8834584147425617 0.0
0.1183517505516689 0.744193656633122 0.0
0.881403065798287 0.2563912352408548 0.0
0.25580537241204576 0.11871203919735285 0.0
0.7415357602733608 0.6041291644430298 0.0
0.6092362416120068 0.25100580792531846 0.0
0.3950279434791576 0.7485319531271822 0.0
0.2542761269330804 0.3956543132290707 0.0
0.5234315842802962 0.5921759457111943 0.0
0.8985781084116561 0.8857371941540023 0.0
0.8842821578600606 0.10038259070708412 0.0
0.11593495755442822 0.8996021804775765 0.0
0.10028901946606317 0.11598721035833649 0.0
0.7619345339161967 0.392632737467881 0.0
0.2380171746344141 0.6106747694792958 0.0
0.39050160580996496 0.23643480727647728 0.0
0.8974619412842892 0.4374191975532677 0.0
0.43626125216409894 0.10221055319054663 0.0
0.5648714833915762 0.8948749156172191 0.0
0.10278214911285614 0.5640159431600039 0.0
0.788139735871828 0.7427104532519192 0.0
0.7423532137974155 0.2113816681896868 0.0
0.2571801735682072 0.7895482731326955 0.0
0.2114658025967347 0.2573784269584282 0.0
0.720741521592449 0.8007142304680813 0.0
0.794541221549635 0.2835348734622355 0.0
0.20523223511809402 0.717910671082309 0.0
0.2874609571935758 0.20208297355559443 0.0
0.5943177452432294 0.4952333771391646 0.0
0.49063959795036 0.412045493234014 0.0
0.4246213068441743 0.5470769585300994 0.0
0.6321386317143891 0.7582850233291794 0.0
0.6518928707368572 0.35448644808974983 0.0
0.4956176020802984 0.6928140712236044 0.0
0.3533391450225087 0.6430511812363747 0.0
0.34958500457336283 0.34775123260999025 0.0
0.9158976955596614 0.815820913053144 0.0
0.814935213854015 0.08347718676300936 0.0
0.1849600640491627 0.9165883402584517 0.0
0.0833790532714878 0.18488267284860643 0.0
0.827446417523314 0.9104018688181335 0.0
0.09103395904569121 0.8285760644786202 0.0
0.9093965435846746 0.17165905860007485 0.0
0.1720254643244255 0.09076042378964261 0.0
0.6982587241142054 0.5184535952969265 0.0
0.648861658595187 0.6493058486848363 0.0
0.5120856992925596 0.3033256137232119 0.0
0.30008696338260904 0.4843026036884698 0.0
0.917635722054823 0.60770335337109 0.0
0.6127261501925131 0.08530415295290411 0.0
0.3955842699502204 0.9204948187716556 0.0
0.08275553884470664 0.38700661323033575 0.0
0.6641302475322636 0.9191497012504752 0.0
0.0812054653808721 0.662741227531263 0.0
0.9188459588150774 0.3384788214126806 0.0
0.33791975606768343 0.08138533508660128 0.0
0.8217330814992843 0.43636925798375203 0.0
0.5670234566530649 0.8168202339816565 0.0
0.43507606885963174 0.17702722542051086 0.0
0.1779721163734071 0.5655306897233994 0.0
0.43370045180676764 0.45860486536409684 0.0
0.8188795717963608 0.5699711887220527 0.0
0.5678559227669897 0.18112741708165264 0.0
0.43028282630169384 0.8187862464424742 0.0
0.18131134575516605 0.43153836860465955 0.0
0.7710609192097271 0.6681160377326681 0.0
0.6683954498815124 0.22558777937268393 0.0
0.33128856963693515 0.7756607369787522 0.0
0.22629398376426366 0.3320316558896055 0.0
0.9288728049911813 0.684491808962092 0.0
0.684723853598312 0.07154246677739892 0.0
0.31284791692989333 0.9269146406205375 0.0
0.07395942509483838 0.3112620713851093 0.0
0.5612862411806891 0.7405815544054216 0.0
0.6018578124860249 0.4195952242233949 0.0
0.3748019517633336 0.49933359114568454 0.0
0.7340541321639913 0.45856397433252843 0.0
0.4555602932800189 0.26234788799655195 0.0
0.2665172632870401 0.5430064085699569 0.0
0.5870423220690701 0.6144359596126721 0.0
0.41800537198398713 0.38733700791405073 0.0
0.5719325657513912 0.5421503949336896 0.0
0.5476766378516899 0.44868305841438566 0.0
0.933840419915508 0.4966879241608892 0.0
0.4973615787734697 0.06589078631526993 0.0
0.5015847953876523 0.9322523350508349 0.0
0.06595522010042455 0.5019900827426209 0.0
0.8450087631928017 0.49848368794560416 0.0
0.49656911057156894 0.15362258196665818 0.0
0.49842346086617084 0.8427371782789614 0.0
0.1540508555724305 0.5031212934237035 0.0
0.8443023403993142 0.6979453764653706 0.0
0.6977071368148435 0.15584780130661569 0.0
0.3006532035366523 0.8442247961216354 0.0
0.15627759100966726 0.3014704956188523 0.0
0.7707566665824416 0.8377611995404041 0.0
0.8350601416856498 0.22862355804208104 0.0
0.16446403825229622 0.7716473953839647 0.0
0.2284994115602667 0.1645973400964838 0.0
0.7619182924750804 0.32709430541232 0.0
0.23711438022667108 0.6749763850454381 0.0
0.32597177398063154 0.23793054906719824 0.0
0.6393958563635227 0.30118542051795893 0.0
[...]
POINT_DATA 2209
SCALARS Psi double
LOOKUP_TABLE default
0.0
0.0
0.0
0.0
0.0
0.0
0.0
0.0
0.0
0.0
0.0
0.0
0.0
0.0
0.0
0.0
0.0
0.0
0.0
0.0
0.0
0.0
0.0
0.0
0.0
0.0
0.0
0.0
0.0
0.0
0.0
0.0
0.0
0.0
0.0
0.0
0.0
0.0
0.0
0.0
0.0
0.0
0.0
0.0
0.0
0.0
0.0
0.0
0.0
0.0
0.0
0.0
0.0
0.0
0.0
0.0
0.0
0.0
0.0
0.0
0.0
0.0
0.0
0.0
0.0
0.0
0.0
0.0
0.0
0.0
0.0
0.0
0.0
0.0
0.0
0.0
0.0
0.0
0.0
0.0
0.0
0.0
0.0
0.0
0.0
0.0
0.0
0.0
0.0
0.0
0.0
0.0
0.0
0.0
0.0
0.0
0.0
0.0
0.0
0.0
0.0
0.0
0.0
0.0
0.0
0.0
0.0
0.0
0.0
0.0
0.0
0.0
0.0
0.0
0.0
0.0
0.0
0.0
0.0
0.0
0.0
0.0
0.0
0.0
0.0
0.0
0.0
0.0
0.0
0.0
0.0
0.0
0.0
0.0
0.0
0.0
0.0
0.0
0.0
0.0
0.0
0.0
0.0
0.0
0.0
0.0
0.0
0.0
0.0
0.0
0.0
0.0
0.0
0.0
0.0
0.0
0.0
0.0
0.0
0.0
-0.04163920461060312
-0.07676011009807528
-0.01021517430197957
-0.047959365663119244
-0.009707000014123926
-0.02530143215777758
-0.00873138132942564
-0.08123626723870075
-0.017356238440033152
-0.06497715513897198
-0.0015552326143220782
-0.03673566938582813
-0.0017321512591052216
-0.05321333583668056
-0.02193500012961247
-0.059459597104586585
-0.02384798229254624
-0.032648654662213096
-0.0037866957492480426
-0.06500234139526206
-0.005307853854062043
-0.08522757521180106
-0.005632266785247429
-0.017486305945321672
-0.003840361881024582
-0.028533650766301096
-0.07726404299041628
-0.016400324516161507
-0.035173293589529066
-0.010250971600938505
-0.0025712043266106306
-0.06857181470931076
-0.005309911542385468
-0.028422399902661488
-0.0011340308371582284
-0.05013315439350417
-0.0014357488338838415
-0.07158609285955884
-0.015953012751400972
-0.0015504107639750372
-0.001509838150491482
-0.050276105296843704
-0.009983006580956919
-0.06783357528890312
-0.013573354414402505
-0.0587575894943702
-0.04065883249620224
-0.00020204464515206444
-0.027831429065186243
-0.00026485246746856184
-0.014057061706823647
-0.028312321996187374
-0.008631250054023617
-0.004192602261121082
-0.0020401864206529012
-0.0698249578531603
-0.006544254992866762
-0.06872427094119218
-0.00439266309926943
-0.04899848656734902
-0.0047440936468204865
-0.08558984372886867
-0.00539571626661296
-0.03204333559384547
-0.00471579100131085
-0.040805521861199255
-0.027567483226665416
-0.043934630054593936
-0.08846786585831386
-0.017751210834584977
-0.0738372191386504
-0.049421117940897194
-0.015705878020550693
-0.028273477095795856
-0.00040187254170511724
-0.039676476564229984
-0.0004974124358178428
-0.05447842197696072
-0.015223526821622401
-0.00038085121514559316
-0.0004582456317710433
-0.038324497968233694
-0.07139924377787896
-0.015459717195405422
-0.02444578312087572
-0.00876902081136942
-0.0013506029826236162
-0.05394874818298992
-0.0020381807620996756
-0.05989825390983224
-0.006213322100340071
-0.0013297285217015605
-0.0010575498154450566
-0.011644670319339068
-0.08611032984856015
-0.005572017316598227
-0.016147350352691672
-0.03178925566820623
-0.02723046062889415
-0.005880585790616969
-0.07489191550345603
-0.00978357539954424
-0.058471431278743886
-0.007005455513517267
-0.06057465020433249
-0.008358002943103312
-0.011201884210034372
-0.0007739575224143261
-0.04733106771703529
-0.0010956148292202601
-0.08477861102047428
-0.027986298107324163
-0.033049309848063195
-0.024185729358768022
-0.011535832506807064
-0.02616343085530638
-0.06517270820086724
-0.022371581040299786
-0.050135468197665956
-0.033423793802525005
-0.002713371464636078
-0.0009662346401921356
-0.05145503570044233
-0.002377448578321495
-0.013560565501865374
-0.004520809986389703
-0.07908685299168355
-0.01019390156040482
-0.04253479721536228
-0.0031223730882761172
-0.05858767591032134
-0.003935126659052341
-0.07738569522869904
-0.0023379738401892104
-0.028176599910229774
-0.002335950915617295
-0.009268095889781286
-0.03413346640069032
-0.007342921704306479
-0.013168389809883399
-0.05835201351043993
-0.014182246488136789
-0.055385369848075766
-0.0014879653201101144
-0.004095238536454223
-0.0009591906387709234
-0.04732382819444444
-0.0695245159139867
-0.017268901998589815
-1.6095439287978956e-05
-0.024929275366752893
-5.8410517799162495e-06
-0.05102293597674343
-0.0034342105496985497
-0.0007621101361251382
-0.04694730699969979
-0.0014889716678267114
-0.014618968944593967
-0.0003764073182689995
-0.03923958961443648
-0.00046766363532301566
-0.0472717496845815
-0.0062627491875527075
-0.00035879635412486163
-0.00039773565989480273
-0.05437254928621244
-0.002013010164626416
-0.04758092906489624
-0.002329415908571767
-0.08285829458259047
-0.0037534357701123084
-0.01966809310713747
-0.003169453380083591
-0.0661849882867355
-0.04195896066506807
-0.02142332842376795
-0.03674471333264873
-0.015200571609968228
-0.0824637647099691
-0.019692576945996555
-0.05593223964870532
-0.010576518312842753
-0.01714564047460932
-0.01982628607243901
-8.868597139191334e-05
-0.030289677404650033
-0.00012141409533863136
-0.04088289863315462
-0.010797285006733855
-0.00011034576440698168
-0.0001497679284345075
-0.07014725588699465
-0.020072183698763076
-0.013569505658431283
-0.037440505964410294
-0.07476592088348216
-0.019226804805468345
-0.0034063426598944114
-0.06946027930635658
-0.005588627421063419
-0.07824281750082247
-0.006458948501833579
-0.044638000788858524
-0.006355686940172191
-0.08704045968994387
-0.04272102899101629
-0.006966185707487445
-0.06842195404000966
-0.00963481688537352
-0.048880338950266375
-0.004969404949824195
-0.000530785538871616
-0.0005230524585847223
-0.04880961307926392
-0.0005723031911380991
-0.034801135322345265
-0.0006928495514339782
-0.01117828377849817
-0.006401079760222031
-0.021554260690126663
-0.06430483232870413
-0.07206209486281934
-0.002880479162252167
-0.0404262450294397
-0.0030449249559556745
-0.013885544286625268
-0.04083605166218021
-0.011035035305167603
-0.004043020821376956
-0.07646870949984406
-0.002533272700882527
-0.010319698790457644
-0.0888628650326083
-0.05915356544141633
-0.08829489001659699
-0.039026811308047575
-0.05342240573815969
-0.006811327465943697
-0.026643117794386585
-0.005169786808631089
-0.02627293413981895
-0.01686693825274049
-0.018561736613808777
-0.0011087810939108393
-0.0005837982801119853
-0.04411620298322282
-0.0019490071831326464
-0.06832447140373167
-0.024521783269439986
-0.001182914118990568
-0.0012825883412768322
-0.006780714310221293
-0.002517740223215697
-0.07156730774005207
-0.006373795704804485
-0.017277675826738767
-0.008637757660819643
-0.023181698931627196
-0.03296857965170549
-0.0435349529844607
-0.02619457991283914
-0.0021937120323851345
-0.059606531978035726
-0.002976444530573123
-0.005478927605421913
-0.00022705763928386227
-0.030162184112136732
-0.0002569529180415071
-0.0028361339492064493
-0.00029912949834119944
-0.03529278093491558
-0.0005548244492344155
-0.021655992617268884
-0.0786993508791167
-0.024739528874784745
-0.033807107537636376
-0.039732304609151184
-0.08467937053961729
-0.046041144570467936
-0.001084061692555329
-0.04387095445460251
-0.0012915998093474925
-0.0708786989871258
-0.0074978375456114755
-0.05242800621536577
-0.007923297348451638
-0.0531104870520817
-0.0004238711142961651
-0.025234587128636576
-0.0005183123056211818
-0.04793453293621013
-0.01739773604336113
-0.07983407175431824
-0.0506093943990794
-0.0264857681146474
-0.03041268863481044
-0.0851202361263727
-0.022400593918918323
-0.02692137308359249
-0.048234219571405945
-0.029783326495508956
-0.03086599292459926
-0.011826612085749479
-0.014506343670212942
-0.02253634582436796
-0.06360408184451331
-0.07292901517698269
-0.009667874418003819
-0.00011328978972166205
-0.029945176659138314
-0.00014656198513325437
-0.0388509616936392
-0.005162518731983273
-0.0001465419315920649
-0.00018140458873460458
-0.029232744506112844
-0.03901425193819387
-0.04157636806191228
-0.008748893290741678
-0.013157462921622063
-0.017595528389613497
-0.00459235439299202
-0.07883140905151079
-0.008920935127870807
-0.07686187085662172
-0.012938799178478561
-0.0030460173250333885
-0.002317532848613285
-0.036270780964262214
-0.0016804359503802258
-0.00038133850992917414
-0.00030589463934800994
-0.0024190652378733813
-0.00046531410327666645
-0.03393181596555649
-0.0007928892743040389
-0.009086896669544216
-0.003912768476356937
-0.08053069383902253
-0.010834118312492463
-0.020187251066925278
-0.007408198703355214
-0.08473659257883046
-0.004158660830705329
-0.014747842955710905
-0.009771821294856233
-0.06307741700599948
-0.01189086412097023
-0.06404883212165255
-0.01538577142622319
-0.0008515655058911051
-0.0009190885155274904
-0.06770560752407442
-0.02989779536302606
-0.000720855955875298
-0.04473071820074847
-0.0008889660889684273
-0.021054986100353827
-0.0025559905689524483
-0.0638217358254516
-0.0037294861031034175
-0.014559357888675623
-1.5144186386890022e-05
-0.023105285825603533
-2.651675460749043e-05
-0.006799872814047948
-0.026619818718107813
-2.1035707349622246e-05
-1.1273802653524485e-05
-0.07256025192307912
-0.048063750335555676
-0.004889052737277905
-0.06167877661740361
-0.006146245638789809
-0.06853149762780651
-0.010681536901051116
-0.0016565294836537211
-0.0014562244262500926
-0.07483097034969775
-0.01375950169864677
-0.04892086955137409
-0.012689680230403453
-0.00807621496843364
-0.014271515200459104
-0.02928769667535427
-0.018808262917349182
-0.016691025114761816
-0.006558996271789388
-0.015552040882513414
-0.007994550165349586
-0.0016402724306760878
-0.06040443481597255
-0.0030396366790012264
-0.07464788535044434
-0.03477113251080684
-0.04766570110206779
-0.05700887128230958
-0.05845193183390608
-0.01297551389296135
-0.015807280461400973
-0.029380170655948216
-0.004620253388443158
-0.07060577982641585
-0.006962145824770241
-0.010051455926171576
-0.006838957016371802
-0.027481022026574865
-0.08824757138247304
-0.033694741609285074
-0.06237452103794661
-0.005363737594515966
-0.05529117670582314
-0.006098311692059988
-0.0011292335281198739
-0.0003368357979655744
-0.033300636933532544
-0.0007654182315484034
-0.05836141679898658
-0.05697223609689042
-0.0654347079147935
-0.028166058860402635
-0.02427782019285288
-0.013511139154195677
-0.032269623779631246
-0.07155284730526003
-0.07441174360307712
-0.08116788932064226
-0.003048195752891859
-0.02542533117055793
-0.002810802264202569
-0.0805645413415361
-0.003921821744872256
-0.03742483831019334
-0.0038851851288999976
-0.045816397189876644
-0.002236951706413186
-0.05277736208621555
-0.002686384996548537
-0.02094101139529226
-0.0011173860646657625
-0.05162508051376733
-0.001513486949829626
-0.02297927105858998
-0.00973633042892424
-0.021666647015131324
-0.07975927637263318
-0.010305691197782404
-0.05607141921801749
-0.011107526440316614
-0.03414642525174892
-0.018106499989888687
-0.003120489999095923
-0.0002071774146543842
-0.02719303338220275
-0.0002493476468776186
-0.025907598134995623
-0.025886346075581042
-0.05451270266933895
-0.012511717933560727
-0.0012828716068584815
-0.053438774907955525
-0.0017910353124795792
-0.008536088228609172
-0.04151273995347718
-0.007682754701973687
-0.03330434972318957
-0.0002549699868465083
-0.03412308719322324
-0.00032595138392871575
-0.033772709575731336
-0.0017642942127562584
-0.00025911361594363393
-0.00023312607398240048
-0.000718012502001551
-0.0002982456112274836
-0.03146442442138594
-0.0007790969277219192
-0.004638089975801463
-0.0012041780758848901
-0.05516128303952369
-0.0025862821961331276
-0.010695911311448373
2.137220008614926e-06
-0.013372200203424476
2.8155059616525554e-06
-0.06769234544184144
-0.019344800156590666
-0.010951895723760187
-0.030010853347793062
-0.05956408320063319
-0.0007794087512726091
-0.02913266801721707
-0.0009045778197344647
-0.031057907181763617
-0.002202951113693414
-0.00014076537791288482
-0.00015842650126167478
-0.006450697980089528
-0.013018495584024773
-0.020770501049791456
-0.08363911387025089
-0.036381798072487634
-0.06113630911479997
-0.005776577641107204
-0.0016696498635979432
-0.0011921643930341021
-0.08308923766925246
-0.08941885208219932
-0.07446249196547615
-0.02295868701430363
-0.0017661107575922914
-0.0017839928436149323
-0.05753990747175832
-0.0007538163005005672
-0.00838739144353638
-0.0007651302797575401
-0.0772157087230684
-0.06963752958522317
-0.017231054606315705
-0.0005741080121588901
-0.04353898492763744
-0.000727810210372731
-0.03833509627176221
-0.0024539536762214448
-0.0011391959448225667
-0.05662108864381006
-0.003353926647936545
-0.03342731771023105
-0.0011181453584382462
-0.0004929415129086962
-0.0002895515418647219
-0.06507819830378755
-0.047999173332887994
-0.06463001936125048
-0.031179449675782685
-0.07145175016712665
-0.005681305346658498
-0.07752548043146051
-0.0029184064041213095
-0.009675902881975491
-0.056231661900519266
-0.03126243318291109
-0.013887630377161574
-0.0211242419686458
-0.08776477967305256
-0.011825259246162954
-0.016031578428409837
-0.009504572021874434
-5.37874706345879e-05
-4.3884512772251636e-05
-6.326991857822682e-05
-0.028804381775868897
-0.0038335529013097105
-0.026213407044143724
-7.305207532533189e-05
-0.016925160994967672
-0.04275254956294276
-0.013175831168647477
-0.04490008204820005
-0.045111648936973565
-0.012587128240111302
-0.03320893731935633
-0.008901246484862884
-0.06337986262322923
-0.039680941860825256
-0.07122999634561022
-0.0019721027975302787
-0.03444765466157539
-0.0021219751759320176
-0.08250834911157662
-0.06388302540667115
-0.0028493120709217794
-0.06290267753766184
-0.0019678418470829586
-0.04655585203444391
-0.04204826982342467
-0.003159926518700198
-0.0021974839387472155
-0.007374777111608476
-0.02121893980468327
-0.00495667199791115
-0.07840288059777795
-0.00249345054480718
-0.06298573631243536
-0.001442401750944801
-0.0053018824578113044
-0.027711433011234955
-3.7010324348232733e-05
-0.023503056364662878
-6.018102747898481e-05
-0.0033522153319550272
-9.319086265389693e-05
-0.02312388407267541
-0.00011373020435176738
-0.015690796667722585
-0.015753553593255795
-0.05530579868082666
-0.005238738093519167
-8.315599296468016e-05
-0.024528301141969144
-0.00010376828714853238
-0.029739763524772353
-0.0025622505156379007
-9.456240508237695e-05
-0.0001132193434350153
-0.047910258715549436
-0.041204925267706666
-0.0013969085612267741
-0.04884269728246026
-0.0016777533925532461
-0.010522022502032321
-0.0032859289014303774
-0.07460504939352902
-0.007389708505919065
-0.059586032162700635
-0.0036771374180877567
-0.052498741764164095
-0.004191181249433214
-0.007384937089284176
-0.031357648823196166
-0.0062334439487512095
-0.04005665323308741
-0.08488609441648934
-0.08455286986688898
-0.016173973388404303
-0.03428952302226493
-0.01077155526218094
-0.040401044146316574
-0.01708998466731413
-9.721978583543067e-05
-0.00013924587324250324
-0.03510044571831483
-0.003179623350638345
-0.061800322667002215
-0.004235059090058345
-0.07585590611426465
-0.004294006822178555
-0.0430458709140215
-0.004411697585019986
-0.022575563985453177
-0.06467532775183994
-0.04585248174792164
-0.02321462596352218
-0.022714329051206888
-0.08418518615150106
-0.00045932450196974495
-9.729672424025652e-05
-0.019875541890399504
-0.00019488932489570635
-0.04226033982661593
-0.08233544033149459
-0.02006848482012488
-0.03659147904914969
-0.023277707721550914
-0.005126646584326364
-1.6895607643083783e-07
-0.008724408221923493
-0.019214308719225432
-0.01656804306023585
1.6878853830144286e-06
2.357529172450846e-06
9.32848424399837e-08
-0.05262191721418621
-0.004430257289816834
-0.00472763171215571
-0.024419021598547124
-0.018996147679100673
-0.0039787669994276915
-0.0036020836004294586
-0.08477349999463216
-0.039316905745126814
-0.011444661150476501
-0.041224799184506555
-0.009600333910072445
-0.02921926985811377
-0.0836487936582232
-0.037806079095204885
-0.002174839289830261
-0.055703262128214186
-0.0027208976740652983
-0.0758363752336334
-0.008606171049912147
-0.0667108072410448
-0.011241680147926376
-0.08085572872916956
-0.04195693707377262
-0.005319696808746819
-0.06576730643114381
-0.007172658201048934
-0.04821705713083966
-0.015010442833596946
-0.0002182483854809183
-0.00028164473869872486
-0.07791633989161344
-0.020008351027431124
-0.002360190592600077
-0.0021962403254934993
-0.05809410460104447
-0.02272847955968429
-0.04987016001985067
-0.08713084315981436
-0.01718365332709713
-0.01052293770786909
-0.018889482789997556
-0.05883465030540575
-0.03132000613618321
-0.01352995430061835
-0.007802726086961621
-0.024881648618032506
-0.006078638220375315
-0.03622943777058924
-0.005525561577755027
-0.015642280824575538
-0.0034849748302773617
-0.006431216200525614
-0.06382087554840503
-0.0812970265695721
-0.03080081530229191
-0.003337132103921659
-0.003193558019835218
-0.01911169391291858
-0.00029941421000105145
-0.03806501350565321
-0.0003782871005387826
-0.04883463049998492
-0.008625282025530649
-0.00031724570438277456
-0.00037745627207380747
-0.038662745541905325
-0.01777123810095588
-0.05422531611991523
-0.01281054932382755
-0.005001097674637981
-0.01241970256955174
-0.028277115997831954
-0.0008704994452202288
-0.00024296767800798292
-0.0001756783964976294
-0.07608550278837421
-0.017809492778031878
-0.032130010241859526
-0.00012250566490729876
-0.00016185584906838938
-0.07079799146811894
-0.005473182013606532
-0.04974184771659996
-0.005860876157344896
-0.04522707850675144
-0.024923593614537855
-0.0035553685147524786
-0.06827124724252537
-0.005369383117629312
-0.07881641994268208
-0.003866933794795886
-0.012487695230858551
-0.002673909858138852
-0.08716076253361499
-0.03425310215374916
-0.08806701611635095
-0.05946886083026945
-0.0005935707104547664
-0.02120848029820004
-0.0006872634812913885
-0.01527677863482682
-0.006147159562733551
-0.05213504049024895
-0.009536611118238027
-2.072258238740695e-05
-0.023589826614341718
-3.157651432665741e-05
-0.023610992470753933
-0.003489945800318584
-1.172314760164478e-05
-2.0975903493684322e-05
-0.07341508838563217
-0.01243356255259375
-0.006386523140559912
-0.019209767798711266
-0.056698908270407834
-0.0010089356164587903
-0.03656521479394913
-0.0011726897017332845
-0.020429925108939945
-0.000945304564214828
-0.001717696376911756
-0.05045109311489193
-0.043383306460561225
-0.008173355935190365
-0.04663094456484185
-0.007911141851627997
-0.0008951472639902709
-0.00011696871349999163
-0.023128312069314674
-0.00020738515343777684
-0.07185591428703073
-0.07084022210639727
-0.0734356506493125
-0.015435060710273963
-0.0023055447141814823
-0.06379931599449298
-0.003630551115518332
-0.05809977927307068
-0.0010141641949241733
-0.006549961717943496
-0.0008940805623118635
-0.03128214034225553
-0.00015583889224422446
-0.031277479901048545
-0.0002103406176549177
-0.0365083637481416
-0.03859155741873362
-0.0005205402221366024
-0.038948089369798246
-0.0006345847435953315
-0.08888945202055443
-0.022717816044550806
-0.004511713300177807
-0.0075391314090159246
-0.048382442329780596
-0.000367662301100985
-0.028911581718754274
-0.0004625082624613348
-0.007929156083571557
-0.004846680390212439
-0.018464445643563126
-0.0236409081737289
-0.012980277195537392
-0.0006774419133076838
-0.04728698930526586
-0.001051440772387703
-0.01869711919987908
-0.0005925086338330131
-5.4961319937224335e-05
-5.710627488415118e-05
-0.006243320620876577
-0.01149374202450953
-0.040208517940585366
-0.012906062846746018
-0.02195133251676918
-0.06559480159357796
-0.024000405951167956
-0.03534322176568446
-0.006891791551942412
-0.010403486743531866
-0.0011727732881805758
-8.756834155578462e-05
-0.021055909889188484
-0.00012524993288766604
-0.014830181537668135
-0.01577052193284675
-0.007201933828813645
-0.019004185221417665
-0.04727403435429168
-0.021649077735162503
-0.0002249563524053665
-0.00029621003136656347
-0.019004469493142547
-0.08737235235555287
-0.00647847392176806
-0.002124135713309354
-0.06694383975283001
-0.004912352998317146
-0.0556551130329325
-0.050385351781453286
-0.020873428461712824
-0.0721800051797736
-0.011594455606617727
-0.051675526199753886
-0.011420635455264784
-0.0070334787496794775
-0.0646131395119694
-0.008984626764617015
-0.0451209359681003
-0.02387502932744871
-0.05423763674930384
-0.0004460045811879708
-0.00016735173471007914
-0.023832288441456465
-0.0003949656924115497
-0.009777741101257101
-0.003653020029929504
-0.07868228306418118