# vtk DataFile Version 1.0
2D Simulation C++
ASCII
DATASET UNSTRUCTURED_GRID
FIELD FieldData 1
NODES 1 2 int
2209 4256

POINTS 2209 double
0.0 0.0 0.0
0.0 1.0 0.0
1.0 1.0 0.0
1.0 0.0 0.0
0.0 0.02500000037252903 0.0
0.0 0.05000000074505806 0.0
0.0 0.07500000298023224 0.0
0.0 0.10000000149011612 0.0
0.0 0.125 0.0
0.0 0.15000000596046448 0.0
0.0 0.17499999701976776 0.0
0.0 0.20000000298023224 0.0
0.0 0.22499999403953552 0.0
0.0 0.25 0.0
0.0 0.2750000059604645 0.0
0.0 0.30000001192092896 0.0
0.0 0.32499998807907104 0.0
0.0 0.3499999940395355 0.0
0.0 0.375 0.0
0.0 0.4000000059604645 0.0
0.0 0.42500001192092896 0.0
0.0 0.44999998807907104 0.0
0.0 0.4749999940395355 0.0
0.0 0.5 0.0
0.0 0.5249999761581421 0.0
0.0 0.550000011920929 0.0
0.0 0.574999988079071 0.0
0.0 0.6000000238418579 0.0
0.0 0.625 0.0
0.0 0.6499999761581421 0.0
0.0 0.675000011920929 0.0
0.0 0.699999988079071 0.0
0.0 0.7250000238418579 0.0
0.0 0.75 0.0
0.0 0.7749999761581421 0.0
0.0 0.800000011920929 0.0
0.0 0.824999988079071 0.0
0.0 0.8500000238418579 0.0
0.0 0.875 0.0
0.0 0.8999999761581421 0.0
0.0 0.925000011920929 0.0
0.0 0.949999988079071 0.0
0.0 0.9750000238418579 0.0
0.02500000037252903 1.0 0.0
0.05000000074505806 1.0 0.0
0.07500000298023224 1.0 0.0
0.10000000149011612 1.0 0.0
0.125 1.0 0.0
0.15000000596046448 1.0 0.0
0.17499999701976776 1.0 0.0
0.20000000298023224 1.0 0.0
0.22499999403953552 1.0 0.0
0.25 1.0 0.0
0.2750000059604645 1.0 0.0
0.30000001192092896 1.0 0.0
0.32499998807907104 1.0 0.0
0.3499999940395355 1.0 0.0
0.375 1.0 0.0
0.4000000059604645 1.0 0.0
0.42500001192092896 1.0 0.0
0.44999998807907104 1.0 0.0
0.4749999940395355 1.0 0.0
0.5 1.0 0.0
0.5249999761581421 1.0 0.0
0.550000011920929 1.0 0.0
0.574999988079071 1.0 0.0
0.6000000238418579 1.0 0.0
0.625 1.0 0.0
0.6499999761581421 1.0 0.0
0.675000011920929 1.0 0.0
0.699999988079071 1.0 0.0
0.7250000238418579 1.0 0.0
0.75 1.0 0.0
0.7749999761581421 1.0 0.0
0.800000011920929 1.0 0.0
0.824999988079071 1.0 0.0
0.8500000238418579 1.0 0.0
0.875 1.0 0.0
0.8999999761581421 1.0 0.0
0.925000011920929 1.0 0.0
0.949999988079071 1.0 0.0
0.9750000238418579 1.0 0.0
1.0 0.9750000238418579 0.0
1.0 0.949999988079071 0.0
1.0 0.925000011920929 0.0
1.0 0.8999999761581421 0.0
1.0 0.875 0.0
1.0 0.8500000238418579 0.0
1.0 0.824999988079071 0.0
1.0 0.800000011920929 0.0
1.0 0.7749999761581421 0.0
1.0 0.75 0.0
1.0 0.7250000238418579 0.0
1.0 0.699999988079071 0.0
1.0 0.675000011920929 0.0
1.0 0.6499999761581421 0.0
1.0 0.625 0.0
1.0 0.6000000238418579 0.0
1.0 0.574999988079071 0.0
1.0 0.550000011920929 0.0
1.0 0.5249999761581421 0.0
1.0 0.5 0.0
1.0 0.4749999940395355 0.0
1.0 0.44999998807907104 0.0
1.0 0.42500001192092896 0.0
1.0 0.4000000059604645 0.0
1.0 0.375 0.0
1.0 0.3499999940395355 0.0
1.0 0.32499998807907104 0.0
1.0 0.30000001192092896 0.0
1.0 0.2750000059604645 0.0
1.0 0.25 0.0
1.0 0.22499999403953552 0.0
1.0 0.20000000298023224 0.0
1.0 0.17499999701976776 0.0
1.0 0.15000000596046448 0.0
1.0 0.125 0.0
1.0 0.10000000149011612 0.0
1.0 0.07500000298023224 0.0
1.0 0.05000000074505806 0.0
1.0 0.02500000037252903 0.0
0.9750000238418579 0.0 0.0
0.949999988079071 0.0 0.0
0.925000011920929 0.0 0.0
0.8999999761581421 0.0 0.0
0.875 0.0 0.0
0.8500000238418579 0.0 0.0
0.824999988079071 0.0 0.0
0.800000011920929 0.0 0.0
0.7749999761581421 0.0 0.0
0.75 0.0 0.0
0.7250000238418579 0.0 0.0
0.699999988079071 0.0 0.0
0.675000011920929 0.0 0.0
0.6499999761581421 0.0 0.0
0.625 0.0 0.0
0.6000000238418579 0.0 0.0
0.574999988079071 0.0 0.0
0.550000011920929 0.0 0.0
0.5249999761581421 0.0 0.0
0.5 0.0 0.0
0.4749999940395355 0.0 0.0
0.44999998807907104 0.0 0.0
0.42500001192092896 0.0 0.0
0.4000000059604645 0.0 0.0
0.375 0.0 0.0
0.3499999940395355 0.0 0.0
0.32499998807907104 0.0 0.0
0.30000001192092896 0.0 0.0
0.2750000059604645 0.0 0.0
0.25 0.0 0.0
0.22499999403953552 0.0 0.0
0.20000000298023224 0.0 0.0
0.17499999701976776 0.0 0.0
0.15000000596046448 0.0 0.0
0.125 0.0 0.0
0.10000000149011612 0.0 0.0
0.07500000298023224 0.0 0.0
0.05000000074505806 0.0 0.0
0.02500000037252903 0.0 0.0
0.5037241671797035 0.5016004578075739 0.0
0.709763966180791 0.7011217345510513 0.0
0.7009752821446918 0.29307776824789367 0.0
0.29541847861839715 0.7053861389990627 0.0
0.2933522297926804 0.29505990255627207 0.0
0.7746361370676192 0.5035983752366571 0.0
0.5006894666543226 0.22053753370864532 0.0
0.4899091489108274 0.7764255310034972 0.0
0.22123588720328602 0.49511401728906096 0.0
0.82688372957408 0.8194515009227017 0.0
0.8184588762489594 0.16952134873059008 0.0
0.1784726258044781 0.8280248017391035 0.0
0.16894259714434873 0.1785445721995636 0.0
0.641142533851121 0.5643648876787056 0.0
0.5619666353816086 0.3655188864996934 0.0
0.4402120339064706 0.6335764590937141 0.0
0.3608507733894232 0.4265687227461403 0.0
0.8430333030043564 0.6421238341828002 0.0
0.642306241572841 0.15414790840864492 0.0
0.3485487121972513 0.8407676941862187 0.0
0.1537835789929403 0.35379028910219057 0.0
0.6468734046504873 0.8401903657824971 0.0
0.8403766795329067 0.35685106488114465 0.0
0.15649890341059663 0.6418773310013324 0.0
0.35694414082160436 0.15545673594492923 0.0
0.6722401413910796 0.44726992682799954 0.0
0.5820084767499338 0.6750569532008593 0.0
0.4453716553816794 0.319018992425581 0.0
0.3264537688618279 0.5550349977724653 0.0
0.8808032894887462 0.5299532862881414 0.0
0.5294754187764837 0.11186766332153013 0.0
0.465124019626558 0.8843917906002964 0.0
0.11145730335812222 0.4673925787394718 0.0
0.8961294524031148 0.7404233982102804 0.0
0.7402356209385391 0.10091566705880665 0.0
0.2571350188994928 0.8957869537327675 0.0
0.10189121749102369 0.2571745148896461 0.0
0.7436304691988929 0.8816413331725546 0.0
0.11703473405676237 0.7429355271833653 0.0
0.879788959706101 0.2548252217217465 0.0
0.2543252834878637 0.11718356275352428 0.0
0.739808414720197 0.6026236292110536 0.0
0.6073149089228803 0.24951519925519308 0.0
0.393255702708102 0.7469071075613201 0.0
0.2527416493299038 0.39359803770150453 0.0
0.5216040861308677 0.5908121005551218 0.0
0.8969153172609108 0.8839725255703769 0.0
0.8826143288153236 0.09896384824324068 0.0
0.11423732929656474 0.8979657312883664 0.0
0.09868617346811746 0.11405999499192052 0.0
0.7601787666490881 0.3909435344293773 0.0
0.23693745190286927 0.6089197059469509 0.0
0.3894055957460622 0.234647538996224 0.0
0.8959395429334741 0.4354065463295397 0.0
0.4351212050871515 0.10049849302599749 0.0
0.5634567966663231 0.8930535227458144 0.0
0.10106971394021362 0.5622251374335163 0.0
0.7865489238591024 0.740858809585891 0.0
0.7407514991129478 0.20962619285395775 0.0
0.25574373409582357 0.7876976890262224 0.0
0.20985042956204397 0.25592410276112054 0.0
0.7187942833381328 0.7988307192461209 0.0
0.7925012848493104 0.2817565696496712 0.0
0.20400387919988433 0.7164044928319157 0.0
0.28591091501435245 0.20028168948938865 0.0
0.5923253203296697 0.49335746614705706 0.0
0.4895454401949098 0.41069264524456356 0.0
0.4235661959751575 0.5451811676921954 0.0
0.6308597096810201 0.756970889230579 0.0
0.6503237110030967 0.35303424052368315 0.0
0.4943982791805164 0.6910949118717561 0.0
0.35245779252602644 0.6415577206742854 0.0
0.3481255859179163 0.34633907873760805 0.0
0.9146059666382027 0.8142472295869551 0.0
0.8135041774252588 0.08194229075412186 0.0
0.1833470180506396 0.9150332300167975 0.0
0.08186769324568806 0.18359792735677846 0.0
0.8258704026137236 0.9084866151975777 0.0
0.08941365465351603 0.8267345374905224 0.0
0.907613078238854 0.17038156575321176 0.0
0.1698353710013675 0.08911144721157478 0.0
0.6967845255158235 0.5165646512391351 0.0
0.6473606143472923 0.6476575148159511 0.0
0.5112038165717854 0.30180493628610594 0.0
0.2985155697905126 0.482974495123529 0.0
0.9156854464621618 0.6061542401485014 0.0
0.6113142041271096 0.08382658636198864 0.0
0.3939344360325473 0.9185442151607838 0.0
0.08151640445872639 0.3857221843921646 0.0
0.6621702817208375 0.9173400703759343 0.0
0.07956323986322114 0.6608650657327807 0.0
0.9174546119788141 0.3367944742882421 0.0
0.33632865438285914 0.0794125894464514 0.0
0.819910927261564 0.4353374051372671 0.0
0.5649901328715476 0.8147409721421052 0.0
0.4337696530265263 0.17552472665238927 0.0
0.17676575132272357 0.5634460212053749 0.0
0.43222438677354746 0.45680806829992443 0.0
0.8170927408366664 0.5682625982434341 0.0
0.5666473041324837 0.17998744440125874 0.0
0.4283485797675979 0.8172369735143259 0.0
0.17957833062295311 0.43023238208601056 0.0
0.7693600182630657 0.6663563658088645 0.0
0.6666542520463282 0.22390640049677465 0.0
0.32962457708811904 0.7743915643784791 0.0
0.22463265428065135 0.32989438646233243 0.0
0.9270898003095006 0.6825654931451449 0.0
0.6828721647692954 0.07066529131733928 0.0
0.3111379237234895 0.9251163008477187 0.0
0.07233757792847739 0.31034398313072453 0.0
0.5594487393423925 0.738909200097068 0.0
0.6007519600224775 0.41808123927002555 0.0
0.37356736745651725 0.49723077691468376 0.0
0.732448549009108 0.4574866296010721 0.0
0.4541591937980542 0.2612382891150584 0.0
0.2650973104873561 0.5412967182811174 0.0
0.5859407869127803 0.6128767019560877 0.0
0.4165602186463836 0.3853813637331107 0.0
0.5702355348525733 0.5406266571067123 0.0
0.5462668775976497 0.4472479464369954 0.0
0.9320998680293273 0.49484744677081394 0.0
0.4957255773224829 0.06480049251996109 0.0
0.499983408275348 0.9301460546083626 0.0
0.0641589301445384 0.5009388933900288 0.0
0.8437938765372255 0.4969079401646563 0.0
0.4955124262261635 0.1523700822021206 0.0
0.4970792985770551 0.8406534886202123 0.0
0.15254636827393836 0.5012533902517251 0.0
0.842818200276704 0.6960573539984299 0.0
0.6959679833954159 0.1539787750003284 0.0
0.2992495957124835 0.8427476725883699 0.0
0.15465853092141355 0.3003148610874767 0.0
0.7695357408111146 0.836029899029397 0.0
0.8335011755438622 0.22702246104084944 0.0
0.16343811743220135 0.7705960386162227 0.0
0.22643773097117342 0.16310125901584321 0.0
0.7598933638305472 0.32593071159014253 0.0
0.23622938786409242 0.6728923554784552 0.0
0.32468043070851743 0.23600571047784744 0.0
0.6374127906255973 0.29954897134234726 0.0
[...]
POINT_DATA 2209
SCALARS Psi double
LOOKUP_TABLE default
0.0
0.0
0.0
0.0
0.0
0.0
0.0
0.0
0.0
0.0
0.0
0.0
0.0
0.0
0.0
0.0
0.0
0.0
0.0
0.0
0.0
0.0
0.0
0.0
0.0
0.0
0.0
0.0
0.0
0.0
0.0
0.0
0.0
0.0
0.0
0.0
0.0
0.0
0.0
0.0
0.0
0.0
0.0
0.0
0.0
0.0
0.0
0.0
0.0
0.0
0.0
0.0
0.0
0.0
0.0
0.0
0.0
0.0
0.0
0.0
0.0
0.0
0.0
0.0
0.0
0.0
0.0
0.0
0.0
0.0
0.0
0.0
0.0
0.0
0.0
0.0
0.0
0.0
0.0
0.0
0.0
0.0
0.0
0.0
0.0
0.0
0.0
0.0
0.0
0.0
0.0
0.0
0.0
0.0
0.0
0.0
0.0
0.0
0.0
0.0
0.0
0.0
0.0
0.0
0.0
0.0
0.0
0.0
0.0
0.0
0.0
0.0
0.0
0.0
0.0
0.0
0.0
0.0
0.0
0.0
0.0
0.0
0.0
0.0
0.0
0.0
0.0
0.0
0.0
0.0
0.0
0.0
0.0
0.0
0.0
0.0
0.0
0.0
0.0
0.0
0.0
0.0
0.0
0.0
0.0
0.0
0.0
0.0
0.0
0.0
0.0
0.0
0.0
0.0
0.0
0.0
0.0
0.0
0.0
0.0
-0.04597074079912993
-0.08139144619568818
-0.010939321521202833
-0.04994511610131848
-0.01037367138145629
-0.028051033948375943
-0.009303324591398711
-0.08447595216311121
-0.018488261914024882
-0.06684998142460127
-0.0015205884672411308
-0.036749441738248685
-0.001775358533396336
-0.05850077943782148
-0.024091219012047617
-0.06389684662405737
-0.025957806606985028
-0.03529077899007473
-0.003923995838008882
-0.06610887981383119
-0.005586017378169655
-0.08775627345522252
-0.00604641207945888
-0.0180488340080939
-0.004016940810469977
-0.03161441129692591
-0.08260975476220735
-0.017849677946648258
-0.03781605819829695
-0.011414470787118694
-0.002662030551135572
-0.07019870313330068
-0.005556536697920079
-0.02993591036889575
-0.001098906822618492
-0.05056331172936935
-0.0014880573463114716
-0.07311438310458386
-0.015949027961443644
-0.0015508159526758693
-0.0015376872441470824
-0.0548246190468565
-0.01062259253118353
-0.07048872317500943
-0.014509459898040186
-0.06400913711682961
-0.041754040645061274
-0.0001737298759410942
-0.02760869281316005
-0.0002558355563332999
-0.015377332262099697
-0.029798652207491807
-0.00921510823694403
-0.004604397871608864
-0.0021003062163551293
-0.07169530229534804
-0.006712924265367625
-0.07195795344235179
-0.0044987360467127315
-0.049622193739962496
-0.004994585786958426
-0.08850486071207068
-0.005652984748337782
-0.03278029555623463
-0.0049350532891863485
-0.04513603956986211
-0.030370891681338434
-0.04786231472960237
-0.0926226517540783
-0.019432792196235442
-0.07841548932439257
-0.05253771743843967
-0.016971805613088264
-0.02948293025818131
-0.00036726486776614026
-0.03998741962330382
-0.0004974245985406015
-0.055760078563027136
-0.014914589238047065
-0.00034716842133428443
-0.0004509754464319747
-0.042320909371429107
-0.07696730895480582
-0.016738965089911562
-0.02640043373344413
-0.009827478983316257
-0.0013443529947819131
-0.0551705828906555
-0.0021425576358908493
-0.06158012218736488
-0.006210393175369357
-0.0013791719679526037
-0.0010650268234757142
-0.012876599895287106
-0.08913627973971791
-0.005860026268823843
-0.016925465149474496
-0.034818675523448285
-0.029966988726052583
-0.0061713485122625224
-0.07692102694223053
-0.01038288476667144
-0.06261233958106388
-0.007327840591070399
-0.06215427740193276
-0.008860237244101827
-0.01232280919256758
-0.0007668636294921297
-0.048241251253944975
-0.0011310648681061518
-0.08917170875038885
-0.03094453220296115
-0.03587165493677209
-0.02694820941583755
-0.012407187362935775
-0.027927864517451842
-0.07092054065902527
-0.024398417853404894
-0.05525774413153441
-0.03696602964867457
-0.003037791607056363
-0.0009834409228850246
-0.053050943616788276
-0.002409092411909283
-0.015055379369844411
-0.004744104269941175
-0.0813843482025485
-0.010745981937178701
-0.04508762382240387
-0.0031826860172732047
-0.059354031115354366
-0.004129682020964592
-0.0794290549648562
-0.0023402594509136835
-0.028364134938767722
-0.002407348911463081
-0.009984367580968777
-0.035396769954529915
-0.007783989883518252
-0.014224848820391553
-0.06117362474892449
-0.015242446379178631
-0.057432706733067135
-0.001613147316670337
-0.0041281172322560865
-0.0009695286763832574
-0.050856073233073715
-0.0733757742436958
-0.017235158907629475
-1.3921485303826598e-05
-0.02591212197075758
-1.283326040691215e-06
-0.05575101647602816
-0.0038226912449366643
-0.0007612941834236252
-0.04843727906817234
-0.0015076763042324898
-0.015610553896014333
-0.0003483940064814436
-0.039996540654780595
-0.0004758800281006072
-0.04863483387107735
-0.006122681900502232
-0.0003420349801600642
-0.0003974471305833398
-0.05641724587971839
-0.001985659290856786
-0.047798429734137934
-0.002400945920316186
-0.08503065753520382
-0.003940567275870351
-0.020074378317862462
-0.00328655556275753
-0.07116681133860008
-0.046478551003163865
-0.023476086208485257
-0.04068905324000937
-0.01651955484581009
-0.08742860572415154
-0.021291391311597022
-0.06123594327483088
-0.011322622211141468
-0.01830264864176405
-0.0206519437829686
-7.18710787677284e-05
-0.030687000802735443
-0.00011574813727368588
-0.042256101637225804
-0.010438112978565606
-9.29881043025635e-05
-0.00014597877394669786
-0.07551599827898434
-0.022025912622015715
-0.014651314962175055
-0.039805526477978664
-0.07806461944742575
-0.021257343627231865
-0.003524835377599512
-0.0708168018326476
-0.005895746683175419
-0.08190468466086823
-0.006733417618274105
-0.045768250297024984
-0.006720519867094581
-0.09084360535608843
-0.04650742279175495
-0.007347233066550387
-0.07026668631902529
-0.010236655937528335
-0.05060318937731769
-0.004887834502975729
-0.0005279040073933841
-0.0005181094796668525
-0.04998268443897487
-0.0005328486584458058
-0.03469938799819453
-0.0006973726736942124
-0.012235663201030776
-0.0067631655344321156
-0.02255313987129373
-0.0693369613372593
-0.07463119172340332
-0.002891491855555731
-0.04072395235914679
-0.0031521920678687955
-0.015156059013521
-0.04285498455753447
-0.011809469698820785
-0.004408928331817471
-0.07848209675204491
-0.0025958493648454792
-0.01057546179721019
-0.09218947460071496
-0.06268212303130193
-0.09138487772569652
-0.04290838809896025
-0.0579073064044652
-0.007315674158696988
-0.02747766467970272
-0.005408733577528423
-0.029025924104334924
-0.018376576918625227
-0.02009970302974331
-0.0012233028904352905
-0.0005879672619519516
-0.045924537573245924
-0.00197009317655556
-0.06993945058578509
-0.024459795815929684
-0.0011389488367218056
-0.0012977615541191637
-0.007588282897656747
-0.0026125429763011678
-0.0734308828199189
-0.006613217269038981
-0.019155720970119427
-0.009207896528186094
-0.02443388751759825
-0.036362808695266056
-0.0480010181612495
-0.02811874865482217
-0.002209750845051172
-0.06036010349360502
-0.003131869903176544
-0.006000388196756374
-0.000221119125436842
-0.03100743980933855
-0.00026277127864547764
-0.003194729761065065
-0.0002926588886269224
-0.036420006419670845
-0.0005661244777794677
-0.023709296624848792
-0.08371113348897717
-0.027376741505222495
-0.03742090838128503
-0.04298036651443984
-0.08951129790302075
-0.047774141117501605
-0.0010428985688438273
-0.04391467202730557
-0.0013118389517823958
-0.07492842051655176
-0.007908091019455369
-0.05386342645732626
-0.008421221596747956
-0.054274501358786
-0.00038053641780631543
-0.024935124022782765
-0.0005121909654112406
-0.05276808894579332
-0.018899862481252236
-0.08407344569225592
-0.055550747182615066
-0.028723220816032485
-0.03292311793563117
-0.08861929879942004
-0.02467172197572977
-0.02948239677222795
-0.05319198018292023
-0.03307502035527069
-0.03428193474899322
-0.012687974300622497
-0.0156833340239281
-0.024160058484837054
-0.06933352027984648
-0.0785385814131375
-0.010186754717586809
-0.00010008171336269108
-0.0308939113548049
-0.0001407914246957495
-0.039933677970114705
-0.0050743285921844294
-0.0001320469417823197
-0.0001769151463962446
-0.03185923113056307
-0.04277821606440328
-0.04451536638000568
-0.009273181501014912
-0.014002675587855878
-0.019609387204226423
-0.004810743420012422
-0.08124167522846469
-0.009436293043374606
-0.07889356447554023
-0.013119087312346655
-0.003201918404969402
-0.0023874669539569447
-0.03743168391206736
-0.001669102269991064
-0.00040434020482925235
-0.0003009426756984022
-0.002704075959810512
-0.00046183875142541647
-0.035440193056726056
-0.0008029753666322049
-0.010034125714263122
-0.0040705219264310895
-0.08302450099892499
-0.011236903606806214
-0.021957621033743737
-0.008103115904545469
-0.08738684017697933
-0.004336604441517084
-0.015342536229762942
-0.01046186485092087
-0.0654925492467487
-0.012739264910597705
-0.06539427262197842
-0.01520761626117382
-0.0008233110610593912
-0.0009248013937947807
-0.07224739903780958
-0.031369986334265174
-0.000679886697590208
-0.04504140442835028
-0.000900962781690643
-0.022968323297188953
-0.0026159974956128963
-0.06489183105674215
-0.003924296189030888
-0.015165902643816323
-1.0056381004387389e-05
-0.023555196088937715
-2.5279424482525393e-05
-0.006598313854424817
-0.027746832434754377
-2.0216151213624027e-05
-5.514994459836526e-06
-0.07499396055619047
-0.051427421152120595
-0.005059682529582665
-0.06284432840504306
-0.006498225359831186
-0.07021757294216133
-0.01075475909808564
-0.001709056936997394
-0.0014824207972439886
-0.07990972083623113
-0.014925285146360644
-0.05150138191013467
-0.013590365071180803
-0.008608506344002592
-0.015178912183340262
-0.03243650902095935
-0.020575438615701238
-0.018452997749249356
-0.006922358688802101
-0.016444558492664713
-0.009010056610419067
-0.0016802086391739662
-0.0617274892729964
-0.003146704799106693
-0.07646109293624162
-0.03791435188259436
-0.05223987849661279
-0.062458496503455814
-0.06305966564619449
-0.013993660377571382
-0.017012590320886995
-0.03230259158593604
-0.004817556599894723
-0.07216507681715842
-0.007400635868133276
-0.010920593889589342
-0.0072209521272971035
-0.028621458586428394
-0.09227276628936947
-0.037267499293456824
-0.06581068257163143
-0.005563276552555024
-0.05637140359876772
-0.006458061750959465
-0.0012961048968736619
-0.0003432140540413037
-0.034891872655346226
-0.0007676555559286678
-0.06381088573113214
-0.062017891374418294
-0.06888869256271792
-0.030255499473451006
-0.026837637766102297
-0.014597373419230113
-0.034548285557492474
-0.077151483543058
-0.07836730967498733
-0.08329893570026639
-0.0031118687415428938
-0.0256899190446335
-0.0029210064356865488
-0.0833872836580776
-0.004021553554404819
-0.03787435920726248
-0.004063276462160463
-0.048247252220018175
-0.002237308463062507
-0.05318615398214203
-0.0027911873385052404
-0.022254426875762616
-0.0011019270185861033
-0.05222934015222119
-0.001576602142581417
-0.025482430854629267
-0.010417594819940612
-0.02310453748024859
-0.08505680429094954
-0.011062383510455211
-0.058401825167141104
-0.011854500916517841
-0.03790317138187859
-0.01975390584171633
-0.003553422027998411
-0.00020162986469645703
-0.028009918571194798
-0.0002516150849697341
-0.02834447651121298
-0.028596637044212836
-0.05828331760103707
-0.013887442333162645
-0.0012779758817451335
-0.05437177934011571
-0.0018525096695873441
-0.009052759961667515
-0.04284330275775165
-0.008129788422609169
-0.034340572237764475
-0.0002241234589416648
-0.03418981640355093
-0.0003181396813244594
-0.03481930738484142
-0.001776152000385213
-0.0002613182221791531
-0.00023033770723623908
-0.0008235327626595862
-0.0002904941093903751
-0.03314270942946325
-0.0008091643475615178
-0.005262574176271046
-0.001227375291424225
-0.05683842387921171
-0.0026918041694296204
-0.010823379868421959
1.9448609486968883e-06
-0.013996406281256176
3.228088476468822e-06
-0.07229206302516486
-0.021366748684168328
-0.011767759772071753
-0.031862919150048845
-0.06097992131847703
-0.0007343471542650078
-0.0288497331978052
-0.0009035301026366149
-0.032557191771408284
-0.002144387703614162
-0.0001320922700518617
-0.00015582570457366572
-0.006805015387109742
-0.013787137242034089
-0.022830082638966465
-0.08817268381416814
-0.04019198380153077
-0.06297738763297314
-0.005846499986578966
-0.001779276652881982
-0.0012057803999527322
-0.08608585760437847
-0.09301024986994764
-0.07624947259345335
-0.022870337215730365
-0.0017487047653732795
-0.0018241221042487271
-0.05910209980424948
-0.0007484737828818907
-0.008307247443764118
-0.0007603637624843516
-0.07990039287071658
-0.07463220557875214
-0.018272512217109817
-0.0005422914741924464
-0.04419430238021701
-0.0007425141826099761
-0.04227841119314243
-0.0027560057553421904
-0.0011520645594954176
-0.05829586539978876
-0.003424310578503917
-0.034537631004814266
-0.001119941725947065
-0.0005310288114444556
-0.00029254317167437554
-0.07065938044583846
-0.051957477748019607
-0.07004117398760976
-0.03437539662147301
-0.07470662882350858
-0.006285183462992378
-0.07973976268767752
-0.003016002429971563
-0.010016606711405937
-0.061276658380812365
-0.03463727319452478
-0.01503266920875155
-0.022754581441846965
-0.09149664386090134
-0.012709966389258484
-0.017261986650661535
-0.009947500020661504
-4.509814642644972e-05
-3.625832061794485e-05
-6.1337872274033e-05
-0.03010722855910995
-0.0036685878498149216
-0.026953840117018502
-7.260065209292559e-05
-0.018531134440292283
-0.04513304878344454
-0.014219220220981169
-0.049207227912883164
-0.049838956236163905
-0.013728782532289577
-0.03483847388991492
-0.009494803501589226
-0.06725813428534784
-0.04312766907620541
-0.07326582427793808
-0.0019518566474168086
-0.03443007964179488
-0.0021692320015758494
-0.08651726668651416
-0.06643671454844718
-0.0028504977135722174
-0.06494473421661554
-0.0019398131988483576
-0.04699315709837251
-0.04222204299027276
-0.0032871302613172735
-0.002255494685242696
-0.00797999847489804
-0.022004583188744826
-0.005188103945000458
-0.08187035683645898
-0.0027363180486697425
-0.0650156653423781
-0.0014556509335360306
-0.005448637560013173
-0.028600815804189158
-2.690948471816496e-05
-0.023447297738947423
-5.7469507228758596e-05
-0.003660366373464736
-8.880474209980927e-05
-0.023997067428781358
-0.00011780158244146025
-0.017036650876159583
-0.017018053722435852
-0.05847954376913616
-0.005535903205951303
-7.464586850902894e-05
-0.02551860875511
-0.00010535103423568074
-0.030936011166437224
-0.002476575245781857
-8.416204471941345e-05
-0.00011062737468394732
-0.05275774861483632
-0.04308990578491944
-0.001363642830503028
-0.04908332929353573
-0.0017327038199753727
-0.011675636803551735
-0.003419591036341501
-0.07653420546863839
-0.007722504728569046
-0.06250283156682801
-0.003742469337775835
-0.05314514668826907
-0.004413445082881442
-0.00788243178402638
-0.032421979683628185
-0.006568562121080617
-0.04425335858431484
-0.08739396863022546
-0.08698159715295381
-0.017719314316701967
-0.03611359491244662
-0.011572525909702027
-0.041474677916160614
-0.01669788087149106
-8.023026892730895e-05
-0.00013311383928267168
-0.03769429071591248
-0.00324771683725617
-0.06264870233064863
-0.004440714409931631
-0.0788754864626592
-0.004395022940617761
-0.043649005136319044
-0.004622694465571005
-0.024703082191987403
-0.07001306664712477
-0.05005926495336994
-0.02555133755723942
-0.024700908004938432
-0.0876285941799459
-0.0005082937175841054
-9.908178081753108e-05
-0.02099942964328894
-0.0002009752993345092
-0.04542753616821846
-0.08492438110920177
-0.021881313922134243
-0.04026902370326981
-0.025357596060035306
-0.004875990007083839
-2.777644090226398e-07
-0.009076162653259594
-0.020073219341798308
-0.01703289075479365
2.8941804044754873e-06
3.5262602139367947e-06
3.30786748560371e-08
-0.05665524213045382
-0.004656456190649546
-0.00500872618337461
-0.02494438341245024
-0.019527164347068263
-0.004144988933444628
-0.003752698960934941
-0.08961156032985503
-0.04363551506967731
-0.01236199829447038
-0.0429506991757887
-0.010215519779106784
-0.03243371395286117
-0.08761915132706233
-0.039886531721812155
-0.002162548912667497
-0.05621755690922808
-0.0028439142063066284
-0.08102885324510903
-0.009165297340262118
-0.06893562150137544
-0.011997871621350856
-0.08588149316305335
-0.04530628307980889
-0.005544244569187887
-0.06718347267426662
-0.0076063893181928756
-0.04949243485108954
-0.014698711405811683
-0.0001931630089619482
-0.0002736866005927772
-0.07980175451056928
-0.020141831256422785
-0.0024065429512899177
-0.0022606567890641354
-0.06340314538047574
-0.025063120857361097
-0.053289458353852175
-0.09047418728525623
-0.018786163728565
-0.011255649330921028
-0.02024416883696046
-0.0635891414714401
-0.0347238243831489
-0.014856412666724982
-0.008300767944642372
-0.026197936965400483
-0.006360608303198946
-0.03718930086337986
-0.005804991135408729
-0.017369534803439026
-0.003622844405474062
-0.0067849553876331795
-0.06670862758188888
-0.08364474632139438
-0.03126436856864835
-0.003397253381427168
-0.0033132628966988835
-0.020165868674892673
-0.0002728739346024587
-0.03862556141021402
-0.0003772307341149902
-0.05023947158861717
-0.008392089046496671
-0.00029605216758088
-0.0003686764298375322
-0.0428658415479775
-0.019308298532954814
-0.05924450415812709
-0.014137478864265337
-0.005228463366362843
-0.0130686224901512
-0.02954618373389823
-0.0008691181051640553
-0.00025364013603088856
-0.00017884051916392917
-0.08142922292168238
-0.018640857672727214
-0.03268561982358346
-0.00010442586564674086
-0.00015741185105481057
-0.07434815494707145
-0.005689428310192662
-0.05061189406310636
-0.006160828901977038
-0.04986947251728858
-0.027381347157800624
-0.0036820582000566776
-0.06958343123097661
-0.005636436319973661
-0.0808867029458872
-0.0041416853395990424
-0.012839008580313416
-0.002749693498165196
-0.09131616603904323
-0.03719086141594993
-0.09104270766410276
-0.06073458447699275
-0.0005555774006485644
-0.02103698157362003
-0.0006899031710886239
-0.016540257445961975
-0.0070200522647300605
-0.05353776516203862
-0.009975478325769007
-1.5648743664876143e-05
-0.02425686854656538
-3.109764502665333e-05
-0.024615074351403032
-0.003369681771643238
-7.081603510706408e-06
-2.0449884484660447e-05
-0.0785775611261889
-0.013755782959171438
-0.006758178153869292
-0.02023328876723242
-0.05836328736485743
-0.0009623569449257878
-0.03648753976810632
-0.001182111138094884
-0.022531176416824897
-0.0009534326501422167
-0.001732357137300821
-0.054671220422373254
-0.04774131882580562
-0.008619044416848678
-0.04809558971867603
-0.008392683221727046
-0.0009934965057542238
-0.00012239975202870995
-0.02423516615325496
-0.00021671664405878885
-0.07680841072861408
-0.07241888167511631
-0.07521222101003008
-0.01719352786271187
-0.002359101647036042
-0.06506605119016155
-0.003812909804108798
-0.05970110852350039
-0.001040027115568117
-0.006498254287037531
-0.0009021138312166992
-0.03235078215622592
-0.00013516338448593438
-0.03133502148438816
-0.00020156869362774918
-0.03905741174254153
-0.03978983434410514
-0.0004815401473388105
-0.03900115168253601
-0.0006368741502927331
-0.0925163986588042
-0.02521721180779772
-0.00470248753264341
-0.008026076685566517
-0.04953992847778486
-0.0003343343492143727
-0.028599902291543456
-0.0004546992130836867
-0.008618030673374126
-0.005072124323720027
-0.01916388430866598
-0.026105543710727836
-0.014141001738078567
-0.0006566679178307163
-0.047947687588238225
-0.0010747493525837984
-0.019262013403756523
-0.0005851561902345018
-5.0512483066407256e-05
-5.590767778339778e-05
-0.006594004320085518
-0.012185832062354296
-0.04439343768448451
-0.013866336539529102
-0.02357774507665913
-0.0711801138836936
-0.026427641995905953
-0.03873628220588283
-0.007277953881413366
-0.01110731408156223
-0.0012973802647826935
-8.866996597542713e-05
-0.02190426082782852
-0.0001299193684916894
-0.016012799380858443
-0.01740342005254172
-0.007661180366765946
-0.020100372081820875
-0.048372108918559684
-0.021349189988145344
-0.00019763497204418765
-0.0002854855158937739
-0.020845596294596088
-0.09041968968943838
-0.00726987872471393
-0.002205643191952334
-0.06848985882282654
-0.005126417570244422
-0.060971627897934165
-0.05438164014555226
-0.022656814819758137
-0.0741002010720435
-0.012482386382501915
-0.05392251367091652
-0.012201768951897323
-0.007373185313032297
-0.06641818274642133
-0.009564907088260976
-0.04866610477405211
-0.025862570497113494
-0.05767778035642216
-0.0005096937031977769
-0.00016711267197214838
-0.025232074062917043
-0.00041885190230321606
-0.01083632696352313
-0.0037967804296199486
-0.08088774895662683
-0.009511934902137694
-0.06424824607234363