# vtk DataFile Version 1.0
2D Simulation C++
ASCII
DATASET UNSTRUCTURED_GRID
FIELD FieldData 1
NODES 1 2 int
2209 4256

POINTS 2209 double
0.0 0.0 0.0
0.0 1.0 0.0
1.0 1.0 0.0
1.0 0.0 0.0
0.0 0.02500000037252903 0.0
0.0 0.05000000074505806 0.0
0.0 0.07500000298023224 0.0
0.0 0.10000000149011612 0.0
0.0 0.125 0.0
0.0 0.15000000596046448 0.0
0.0 0.17499999701976776 0.0
0.0 0.20000000298023224 0.0
0.0 0.22499999403953552 0.0
0.0 0.25 0.0
0.0 0.2750000059604645 0.0
0.0 0.30000001192092896 0.0
0.0 0.32499998807907104 0.0
0.0 0.3499999940395355 0.0
0.0 0.375 0.0
0.0 0.4000000059604645 0.0
0.0 0.42500001192092896 0.0
0.0 0.44999998807907104 0.0
0.0 0.4749999940395355 0.0
0.0 0.5 0.0
0.0 0.5249999761581421 0.0
0.0 0.550000011920929 0.0
0.0 0.574999988079071 0.0
0.0 0.6000000238418579 0.0
0.0 0.625 0.0
0.0 0.6499999761581421 0.0
0.0 0.675000011920929 0.0
0.0 0.699999988079071 0.0
0.0 0.7250000238418579 0.0
0.0 0.75 0.0
0.0 0.7749999761581421 0.0
0.0 0.800000011920929 0.0
0.0 0.824999988079071 0.0
0.0 0.8500000238418579 0.0
0.0 0.875 0.0
0.0 0.8999999761581421 0.0
0.0 0.925000011920929 0.0
0.0 0.949999988079071 0.0
0.0 0.9750000238418579 0.0
0.02500000037252903 1.0 0.0
0.05000000074505806 1.0 0.0
0.07500000298023224 1.0 0.0
0.10000000149011612 1.0 0.0
0.125 1.0 0.0
0.15000000596046448 1.0 0.0
0.17499999701976776 1.0 0.0
0.20000000298023224 1.0 0.0
0.22499999403953552 1.0 0.0
0.25 1.0 0.0
0.2750000059604645 1.0 0.0
0.30000001192092896 1.0 0.0
0.32499998807907104 1.0 0.0
0.3499999940395355 1.0 0.0
0.375 1.0 0.0
0.4000000059604645 1.0 0.0
0.42500001192092896 1.0 0.0
0.44999998807907104 1.0 0.0
0.4749999940395355 1.0 0.0
0.5 1.0 0.0
0.5249999761581421 1.0 0.0
0.550000011920929 1.0 0.0
0.574999988079071 1.0 0.0
0.6000000238418579 1.0 0.0
0.625 1.0 0.0
0.6499999761581421 1.0 0.0
0.675000011920929 1.0 0.0
0.699999988079071 1.0 0.0
0.7250000238418579 1.0 0.0
0.75 1.0 0.0
0.7749999761581421 1.0 0.0
0.800000011920929 1.0 0.0
0.824999988079071 1.0 0.0
0.8500000238418579 1.0 0.0
0.875 1.0 0.0
0.8999999761581421 1.0 0.0
0.925000011920929 1.0 0.0
0.949999988079071 1.0 0.0
0.9750000238418579 1.0 0.0
1.0 0.9750000238418579 0.0
1.0 0.949999988079071 0.0
1.0 0.925000011920929 0.0
1.0 0.8999999761581421 0.0
1.0 0.875 0.0
1.0 0.8500000238418579 0.0
1.0 0.824999988079071 0.0
1.0 0.800000011920929 0.0
1.0 0.7749999761581421 0.0
1.0 0.75 0.0
1.0 0.7250000238418579 0.0
1.0 0.699999988079071 0.0
1.0 0.675000011920929 0.0
1.0 0.6499999761581421 0.0
1.0 0.625 0.0
1.0 0.6000000238418579 0.0
1.0 0.574999988079071 0.0
1.0 0.550000011920929 0.0
1.0 0.5249999761581421 0.0
1.0 0.5 0.0
1.0 0.4749999940395355 0.0
1.0 0.44999998807907104 0.0
1.0 0.42500001192092896 0.0
1.0 0.4000000059604645 0.0
1.0 0.375 0.0
1.0 0.3499999940395355 0.0
1.0 0.32499998807907104 0.0
1.0 0.30000001192092896 0.0
1.0 0.2750000059604645 0.0
1.0 0.25 0.0
1.0 0.22499999403953552 0.0
1.0 0.20000000298023224 0.0
1.0 0.17499999701976776 0.0
1.0 0.15000000596046448 0.0
1.0 0.125 0.0
1.0 0.10000000149011612 0.0
1.0 0.07500000298023224 0.0
1.0 0.05000000074505806 0.0
1.0 0.02500000037252903 0.0
0.9750000238418579 0.0 0.0
0.949999988079071 0.0 0.0
0.925000011920929 0.0 0.0
0.8999999761581421 0.0 0.0
0.875 0.0 0.0
0.8500000238418579 0.0 0.0
0.824999988079071 0.0 0.0
0.800000011920929 0.0 0.0
0.7749999761581421 0.0 0.0
0.75 0.0 0.0
0.7250000238418579 0.0 0.0
0.699999988079071 0.0 0.0
0.675000011920929 0.0 0.0
0.6499999761581421 0.0 0.0
0.625 0.0 0.0
0.6000000238418579 0.0 0.0
0.574999988079071 0.0 0.0
0.550000011920929 0.0 0.0
0.5249999761581421 0.0 0.0
0.5 0.0 0.0
0.4749999940395355 0.0 0.0
0.44999998807907104 0.0 0.0
0.42500001192092896 0.0 0.0
0.4000000059604645 0.0 0.0
0.375 0.0 0.0
0.3499999940395355 0.0 0.0
0.32499998807907104 0.0 0.0
0.30000001192092896 0.0 0.0
0.2750000059604645 0.0 0.0
0.25 0.0 0.0
0.22499999403953552 0.0 0.0
0.20000000298023224 0.0 0.0
0.17499999701976776 0.0 0.0
0.15000000596046448 0.0 0.0
0.125 0.0 0.0
0.10000000149011612 0.0 0.0
0.07500000298023224 0.0 0.0
0.05000000074505806 0.0 0.0
0.02500000037252903 0.0 0.0
0.5056230389406072 0.5033724195361153 0.0
0.7114955330183943 0.7026055342288748 0.0
0.7027008382376843 0.29542612633841037 0.0
0.29721675670469033 0.7072709976245333 0.0
0.2951398328202603 0.29651218363422127 0.0
0.7762040164455587 0.5060358388389448 0.0
0.5026872602601777 0.22257719088376102 0.0
0.49222186141971513 0.7782356651461003 0.0
0.22296948962169763 0.4967486110863529 0.0
0.8296264396874666 0.8211559147140182 0.0
0.8200043590220408 0.17155598476742012 0.0
0.1806492872560805 0.8301510828853289 0.0
0.17128615412556072 0.18077810343873185 0.0
0.6433725638696884 0.5666858314253257 0.0
0.5640691303292932 0.3675150437721681 0.0
0.4423666556607483 0.63512133284456 0.0
0.3630417848630811 0.4282566353786408 0.0
0.845080784414621 0.6446208563623514 0.0
0.644607229119966 0.15631952776335475 0.0
0.35041913849442996 0.8427380178132927 0.0
0.15545248064980138 0.355666471449881 0.0
0.6487878154522645 0.8418656692502141 0.0
0.8420722141957113 0.3584617859227103 0.0
0.15865099245765893 0.6438084288394342 0.0
0.358678049849051 0.1574220953651734 0.0
0.6742688449340142 0.44980986248600663 0.0
0.5838650809729808 0.6770613442640092 0.0
0.44722971431439645 0.3207230624127993 0.0
0.32863364934222367 0.5561150099705995 0.0
0.8825407478586867 0.531938835496717 0.0
0.531714870701902 0.11353159886880186 0.0
0.46713626739257696 0.8865128674112165 0.0
0.1133795614131696 0.4692150919320316 0.0
0.898017904753642 0.7426690769898876 0.0
0.742183440827914 0.10299405672967875 0.0
0.25860316757319574 0.8976115196510466 0.0
0.10362509525923924 0.25912340439718445 0.0
0.7458080389916378 0.8837185424340481 0.0
0.11874818688180126 0.7447098397839398 0.0
0.8817748013405349 0.25636047971720133 0.0
0.2561928836975352 0.11940387114536015 0.0
0.7417294369041075 0.6048566740766874 0.0
0.6093630790481068 0.25145994911989283 0.0
0.39517868922235355 0.7487487843398896 0.0
0.2547767779992423 0.39513957942361205 0.0
0.5233919908639246 0.5924378387929863 0.0
0.8986435058680705 0.8863581289852333 0.0
0.88496537695332 0.10131086291338878 0.0
0.11609009894584181 0.8996587799541939 0.0
0.10091842876844156 0.1158801584504266 0.0
0.7618722100051553 0.39304737163756887 0.0
0.2392287361504531 0.6105407731954022 0.0
0.39122134065347447 0.23645364904061725 0.0
0.8977271820082579 0.4379487186046522 0.0
0.43729144502868295 0.10275696439974255 0.0
0.5651061706193902 0.8951915746643357 0.0
0.10321665797944031 0.5645486575689695 0.0
0.7885934714741776 0.7429471482129073 0.0
0.7423237223432947 0.21219292585977853 0.0
0.2574154305865314 0.7894713840352037 0.0
0.21229129288913245 0.25752902124202165 0.0
0.7213602968209748 0.8013111787105804 0.0
0.7946857923558186 0.2837983801659434 0.0
0.20605640165759692 0.7183070646598004 0.0
0.2878851008612417 0.20162776495497464 0.0
0.5944761205356799 0.4954835257137398 0.0
0.49167772186551045 0.4124481148137256 0.0
0.4253068873176814 0.5465786309080729 0.0
0.6328129930170796 0.7586001485724426 0.0
0.6522263651395055 0.3551672939633275 0.0
0.49609262044144 0.6929549133947928 0.0
0.3544200489572625 0.642813421285351 0.0
0.3500670272273289 0.34771565702823726 0.0
0.9161236612112607 0.8160263922249494 0.0
0.8155564368668451 0.08385211718013226 0.0
0.1849929864644181 0.9169828986075562 0.0
0.0840086373669741 0.18537142608596388 0.0
0.8285539611664762 0.9106549674682555 0.0
0.0918263503335205 0.8288655115939212 0.0
0.9099969733105665 0.17231692290637843 0.0
0.17237423156924714 0.09141378052447384 0.0
0.6983447537561972 0.5190537285136984 0.0
0.6492273072322802 0.6490061669357096 0.0
0.5132048689873548 0.3038358286371147 0.0
0.300334171122564 0.48425028532698444 0.0
0.9182483118020774 0.6085477514242683 0.0
0.6138192393301064 0.0862015449095929 0.0
0.395949366720291 0.9202741641814174 0.0
0.08348335549528085 0.3879640697499584 0.0
0.6644475376200218 0.9195193331487346 0.0
0.08160526792792035 0.6626908882825554 0.0
0.9194488290766201 0.3386458333969668 0.0
0.33853423827164864 0.08177989675111003 0.0
0.8215322870173107 0.43756467570548924 0.0
0.5672629663132652 0.8167725916436498 0.0
0.43593649234445514 0.17744474571937338 0.0
0.17903963960210786 0.5650034086207429 0.0
0.4339342474048247 0.45869979393318555 0.0
0.8188607980663143 0.5705969487606951 0.0
0.5684949901208832 0.18138513939785494 0.0
0.43043192032270056 0.8188829937654135 0.0
0.18144079910884284 0.43214873355546285 0.0
0.7719947942593537 0.6687354173450804 0.0
0.6685750708327303 0.2263882613936745 0.0
0.331506610936332 0.7763036668039739 0.0
0.22626288840765166 0.3315754092954196 0.0
0.9293595187128156 0.6848520309409225 0.0
0.6850420696997173 0.07263515259533972 0.0
0.3129373179135133 0.9268321021249186 0.0
0.07414479150267336 0.3125218338071424 0.0
0.5617216877270466 0.7405132432570574 0.0
0.6029101545162162 0.41998633012819875 0.0
0.37565781872527326 0.49902226784179793 0.0
0.7344033924370339 0.45966726619353687 0.0
0.45611744163420254 0.2626998379690764 0.0
0.2671626215158632 0.5423141598594061 0.0
0.5875851233896305 0.6144853523534297 0.0
0.4185053620006554 0.38696698845969835 0.0
0.572326204587223 0.5428393577800775 0.0
0.5486749917458607 0.44922429313719026 0.0
0.9343085361016924 0.49714639573902847 0.0
0.4980996709597375 0.06630326676450908 0.0
0.5025290684584263 0.9326438546442235 0.0
0.06670027981865664 0.5031503104504553 0.0
0.845059859333073 0.49960206536379387 0.0
0.4973597657132501 0.1540018017349858 0.0
0.49887922063043444 0.8427609571709982 0.0
0.15462834505986872 0.5033969039519811 0.0
0.8447551765034785 0.6980844146112464 0.0
0.6981479692530608 0.15626205395484588 0.0
0.3012559669178897 0.8445541717554432 0.0
0.15618250150834367 0.3022599258263953 0.0
0.7717244897728407 0.8381360700138645 0.0
0.8351522112654552 0.22885977152490022 0.0
0.16556975181710892 0.772373381812882 0.0
0.22818474925789867 0.16493437638555775 0.0
0.7616511940027695 0.32813806314015026 0.0
0.2383863225490229 0.6744988999081716 0.0
0.326346928471052 0.23744074993032782 0.0
0.6397094099739966 0.3022062814594144 0.0
[...]
POINT_DATA 2209
SCALARS Psi double
LOOKUP_TABLE default
0.0
0.0
0.0
0.0
0.0
0.0
0.0
0.0
0.0
0.0
0.0
0.0
0.0
0.0
0.0
0.0
0.0
0.0
0.0
0.0
0.0
0.0
0.0
0.0
0.0
0.0
0.0
0.0
0.0
0.0
0.0
0.0
0.0
0.0
0.0
0.0
0.0
0.0
0.0
0.0
0.0
0.0
0.0
0.0
0.0
0.0
0.0
0.0
0.0
0.0
0.0
0.0
0.0
0.0
0.0
0.0
0.0
0.0
0.0
0.0
0.0
0.0
0.0
0.0
0.0
0.0
0.0
0.0
0.0
0.0
0.0
0.0
0.0
0.0
0.0
0.0
0.0
0.0
0.0
0.0
0.0
0.0
0.0
0.0
0.0
0.0
0.0
0.0
0.0
0.0
0.0
0.0
0.0
0.0
0.0
0.0
0.0
0.0
0.0
0.0
0.0
0.0
0.0
0.0
0.0
0.0
0.0
0.0
0.0
0.0
0.0
0.0
0.0
0.0
0.0
0.0
0.0
0.0
0.0
0.0
0.0
0.0
0.0
0.0
0.0
0.0
0.0
0.0
0.0
0.0
0.0
0.0
0.0
0.0
0.0
0.0
0.0
0.0
0.0
0.0
0.0
0.0
0.0
0.0
0.0
0.0
0.0
0.0
0.0
0.0
0.0
0.0
0.0
0.0
0.0
0.0
0.0
0.0
0.0
0.0
-0.054068137190632304
-0.08723017941614503
-0.012520301981435254
-0.05411979304702962
-0.012173430852997087
-0.0322855325850382
-0.010804770750992641
-0.0895605981985367
-0.021551676785369175
-0.06764931518359768
-0.0014895307804217103
-0.03770511916372893
-0.002035805999057238
-0.06702629171060305
-0.02862372670232726
-0.0719647899730274
-0.030779665482348603
-0.038125671772801746
-0.004332384429728599
-0.06799451254537908
-0.0065510388643666454
-0.0900105733952357
-0.006716423245188198
-0.01994172568917529
-0.0046254107917677876
-0.03730455039041165
-0.09079857153875522
-0.02112606080789425
-0.043610090025584775
-0.012803536311484122
-0.0029848323215376517
-0.0712246373549733
-0.006516290413152144
-0.03082367783967359
-0.0011232678424863763
-0.05090733922786521
-0.0017225354813167478
-0.0734997061247009
-0.01685888819836689
-0.0015243685066262094
-0.0017560140533498293
-0.06102494407115784
-0.01225682148405715
-0.07552498871597393
-0.01715175099070781
-0.07325053018319524
-0.04162424338477756
-0.0001216267945700499
-0.02789589343097177
-0.00028399887731952306
-0.01779517800661518
-0.03358638740994537
-0.010785737197597678
-0.0051080651845628496
-0.002406712313614909
-0.07268568001426466
-0.00771748814543572
-0.075296849541751
-0.004862758117432895
-0.05176636453390078
-0.005844557824249876
-0.09130074956957698
-0.006176905352680988
-0.035065308959775124
-0.005682123423613947
-0.05312146405613985
-0.03620215469894441
-0.055598644288794824
-0.09794031781333531
-0.022889906759528813
-0.0861919505029303
-0.05877069551055225
-0.020081564575186873
-0.02945766990750489
-0.0003230767802038231
-0.03995155511000003
-0.0005699274293925571
-0.055248635161799786
-0.015420947233586769
-0.0002729242531949519
-0.0005074105033163768
-0.04908695826484963
-0.08501286927727553
-0.019823733054842176
-0.03091103036682642
-0.0104480505420543
-0.0014807466589430813
-0.055382501484999666
-0.002542269550685309
-0.06153761448283484
-0.00690811713936609
-0.0014262066985154401
-0.0012270585157960626
-0.014766145863026905
-0.09268472719377949
-0.006752381889597788
-0.019330965648539308
-0.04132924891289562
-0.0335603021272531
-0.006981569868509183
-0.08014603340429548
-0.012221946138890105
-0.06753033107332503
-0.008250416439308834
-0.06554817237842765
-0.01041026193515654
-0.012746944951828095
-0.0008115357827507594
-0.04817888939346808
-0.001346234449372288
-0.09561715881459373
-0.03677563202890763
-0.04219425274929333
-0.031415157054351266
-0.014535557640519494
-0.032244090752422926
-0.07999458130812487
-0.029059399837168955
-0.06428478233443877
-0.04394733880762762
-0.0032451014615370853
-0.0011107848560660378
-0.05279739355116567
-0.002917387179407797
-0.017205877319272915
-0.005372096652046072
-0.08404369764347515
-0.012473345191225095
-0.047730392388597324
-0.0033952364566254534
-0.06081210943862683
-0.004820472812901636
-0.08057855438319203
-0.0023722110311199655
-0.029559468066547807
-0.0027340977735596248
-0.01133500636358782
-0.038847229967375295
-0.009046836795878104
-0.016582486763866554
-0.06685031135079327
-0.018045830775479752
-0.05694297561082613
-0.0017218953966663551
-0.004758541872337417
-0.0011454840339017562
-0.05807272095242782
-0.08021090424078547
-0.01761760010048699
-1.4694235505132306e-05
-0.024942761986622552
9.813419398284189e-06
-0.06454195909013219
-0.004135968414682072
-0.000855092353191713
-0.047833656414103365
-0.0018527037884767986
-0.015383082142927022
-0.00033644218683460557
-0.03944573965775316
-0.000554874858863294
-0.047807828526090904
-0.006477925110842689
-0.00029404572861504904
-0.00044842991300912775
-0.05819583499209823
-0.0020264187551258393
-0.04872650089231155
-0.0027788568186235267
-0.08666849358199838
-0.0042354753207308055
-0.021658235423024953
-0.0037580651341895042
-0.07808425251131342
-0.05424801352526076
-0.028012310589535475
-0.0463556379491846
-0.019386301977726925
-0.0942096830003711
-0.025119548556645218
-0.06901689206307005
-0.013157646321705331
-0.02156784071404225
-0.0200315139741504
-4.669587905416514e-05
-0.030460974109319475
-0.00013343623456217978
-0.041355205039562984
-0.010980337571562804
-5.341677135745869e-05
-0.00016131063649491318
-0.08439370746437928
-0.02596779093754922
-0.01724651172986997
-0.04513846377065925
-0.08373490233639967
-0.023397205795442955
-0.003944519378311527
-0.07251029484805996
-0.006984721596427984
-0.08616672579228003
-0.0075142822969973
-0.048703197123150084
-0.007828758153910147
-0.09537877805935872
-0.05118452097089542
-0.008349775092431238
-0.07371004372994233
-0.012091474635113399
-0.049872482912058695
-0.005310574185891886
-0.00048462212494492527
-0.0006013859703753531
-0.049961131444513925
-0.00045802998103007254
-0.03507962888501396
-0.000794040829977895
-0.014023377667765735
-0.007840208647603411
-0.02544831413028476
-0.07809559316133911
-0.07650759135175876
-0.0029958776582724262
-0.04214198102966544
-0.00365169275403554
-0.017610235625990706
-0.04760028972591018
-0.0139033509876213
-0.004855796507861673
-0.07987018636001607
-0.0029843335725447673
-0.011860072688229152
-0.09609700962856102
-0.06964232223623236
-0.09458171710582658
-0.0505024804200441
-0.0663754597632409
-0.008104365275609085
-0.029915339412275626
-0.0062573021034603
-0.0345145334956238
-0.021635863673245034
-0.023719533459155007
-0.0012569944402165555
-0.0006985655041720409
-0.044782685861059074
-0.002384245856850273
-0.07006230542255258
-0.025144677916427
-0.0010629583703926635
-0.0014738328234187154
-0.008497652373908668
-0.0029550712972883928
-0.0746455130817157
-0.007674820454557615
-0.022284017657535224
-0.010686358142860921
-0.027977324486135362
-0.04316973782177807
-0.0563933392482881
-0.029904711362099264
-0.002364045895698221
-0.06129555982311516
-0.0036522301740000884
-0.005952744409298681
-0.00022162168730505843
-0.0298780131807177
-0.00031591538749828005
-0.0032105443261495606
-0.0003291913899080642
-0.03543622958192053
-0.0006968701729532986
-0.028366608437932775
-0.09148879101878579
-0.03241858324738881
-0.0442655836424531
-0.04991022203024958
-0.09629553473092937
-0.04848086611737143
-0.000991572075733863
-0.0444955911763884
-0.0015047106360315742
-0.07992357296960116
-0.008873216334581683
-0.05727494002142903
-0.009862335688198326
-0.05395972042392515
-0.00031252375218393194
-0.02537464402252556
-0.000575668363834238
-0.060563346115449765
-0.022434498160949567
-0.09080814381274674
-0.06451670458060778
-0.033822754961012357
-0.03842414465129795
-0.09352605226742627
-0.029310472070707347
-0.03517607831750523
-0.06178417922242116
-0.03838142400279421
-0.04013041978698401
-0.01489537653220375
-0.01856399288005942
-0.02815454317799843
-0.07809248324545467
-0.08699633582560291
-0.009679977664985906
-8.31429297495496e-05
-0.029892391333010176
-0.00017018559462994375
-0.03893393726315471
-0.005335115642475314
-9.234605519902111e-05
-0.00020110890196540392
-0.037818836033137404
-0.047913759964689814
-0.05070570924819721
-0.01068791703679762
-0.016532636997694396
-0.022084761478579473
-0.0054404537010402385
-0.08481499905064327
-0.011041280064942685
-0.07982412993307218
-0.014376792485327528
-0.0034322851715003384
-0.002743701490838649
-0.036182791439576485
-0.00197501128656657
-0.00037471419023349476
-0.000367333274172509
-0.0027777477835516672
-0.0005254486893358519
-0.0344795268822331
-0.0010223443960241797
-0.011390981611545083
-0.004648665335410435
-0.08527057146494732
-0.012965937322873492
-0.026035556259629392
-0.00912273664604146
-0.08994604382020141
-0.005002494760885713
-0.017273311706766707
-0.011993934632611059
-0.07018636332958295
-0.0150562039803551
-0.06526816304313489
-0.015801664482405272
-0.0007569504056619014
-0.0010479607449008553
-0.08009900151423052
-0.03175253716134191
-0.0006498092019176041
-0.04521745246423005
-0.0010440204631506956
-0.024858249445064234
-0.0028770357677738987
-0.06597778655338334
-0.004631654523140526
-0.014475890537377231
1.9130792263035285e-06
-0.023296135333685557
-2.784566607855184e-05
-0.007126214669915743
-0.02671907764581795
-2.139427944680911e-05
6.052398032065779e-06
-0.07937843238052589
-0.0551896813066784
-0.0055906544517141075
-0.06525957517705323
-0.007630779766334451
-0.0704868092270295
-0.01161467661908387
-0.001734532672740591
-0.0016805293563338292
-0.08699371336791963
-0.01731434977686746
-0.05678428274924795
-0.016034976038264127
-0.009912155414826313
-0.01776897099905003
-0.0369972413637259
-0.024382001081475587
-0.021332804174900043
-0.007996566162041434
-0.01898044345177039
-0.009734354277059334
-0.0018911599007939768
-0.06218073869619253
-0.003762626045331662
-0.07876936645605276
-0.044755225029090864
-0.05912885680618378
-0.07151743868935441
-0.06924416683283985
-0.016386691953819994
-0.020093614092979235
-0.03526557622221084
-0.005415652826764417
-0.0747976585859224
-0.008707664557482947
-0.012498600453825405
-0.008388562959751673
-0.0318299352882896
-0.0976228756563478
-0.04421648522667587
-0.06988348059508988
-0.006135639662058007
-0.05897197232357485
-0.007604454794665791
-0.0013288235637012994
-0.00040359170995777396
-0.03360902043555038
-0.0009784024292599
-0.07313857205127598
-0.07111783293749235
-0.07502653066853465
-0.035241516394599576
-0.031519449078357825
-0.017180785448323133
-0.03978324904955623
-0.08595938063413333
-0.0852694022121747
-0.08472079765163386
-0.0032461709115085653
-0.027216002516707305
-0.003307198648280114
-0.085913411123219
-0.0042905339917250545
-0.03982018129560226
-0.004675272487345336
-0.05017603090638515
-0.0023027436957197382
-0.05423317151645061
-0.0032432708690174825
-0.02331193528505003
-0.0011306926010777913
-0.052401081360232867
-0.0018435466105243658
-0.029737240975304596
-0.012123837602222569
-0.026717284474978384
-0.09277117898868849
-0.012669911435107506
-0.06292802359333032
-0.014013700473019116
-0.04462247255751698
-0.023503211105427493
-0.0033891220525156204
-0.00021751826899143035
-0.026876078019286296
-0.0003235447056584806
-0.03370370208088783
-0.0340042787225919
-0.0657340589612313
-0.014590735714565083
-0.0013919783540500604
-0.054481976319773896
-0.0022052891730124217
-0.010256498335484159
-0.046325192613528264
-0.009491312746046131
-0.03404925939744078
-0.00017746920161320056
-0.03438057069291377
-0.0003604871014730862
-0.0335380196887852
-0.0020188157770414847
-0.00022609687777361024
-0.0002796066929836355
-0.0008148808673569517
-0.0003548681623675992
-0.031559116507435696
-0.0010221864716856261
-0.0057385060374654535
-0.0013862867350337375
-0.05661511370752549
-0.003210988805099448
-0.010946240070009801
3.0793875954436904e-06
-0.012859545643996922
4.5946553734059e-06
-0.07838963825801383
-0.02498965300452191
-0.013766421182238265
-0.03626023399580638
-0.06098119922579371
-0.0006551312058011185
-0.029468598036463272
-0.0010350172826374398
-0.030915540020395295
-0.0024329164013282075
-0.00010213193211826086
-0.00018694347629603236
-0.007771664268053872
-0.016114699796613785
-0.026252447154506888
-0.09403252607836504
-0.047608411461037385
-0.06286834138856935
-0.006575607009276927
-0.001880901785582719
-0.001401867750814957
-0.09043024807790101
-0.09724185845302813
-0.07677970797388753
-0.02398739367159684
-0.0017228266850592437
-0.002079326649311904
-0.058578844575096246
-0.0006986301203973644
-0.008869365456328788
-0.0008670360381488817
-0.08432189014461762
-0.08316015958889143
-0.01858545820728454
-0.0005386396886009535
-0.04405395186278648
-0.0008635397614762586
-0.04999020982948644
-0.0029574090081157128
-0.0013283457394011806
-0.05809459484242691
-0.004027538762814373
-0.03335566494550857
-0.0013515603025843733
-0.0005226917129716165
-0.000359133136486171
-0.07985560762415458
-0.059829215700153794
-0.07782611128469427
-0.04101511792440122
-0.08053090307384102
-0.006999034260681813
-0.08121954784549468
-0.0034794254893014023
-0.011363405250083166
-0.0680863097443923
-0.041175319821593996
-0.01767588624000724
-0.02677398570299232
-0.09644906149572155
-0.014782566636834292
-0.02035663186100628
-0.009414901271742288
-3.149163751986954e-05
-1.5409196934275864e-05
-7.051211913798106e-05
-0.028939469311718664
-0.0040015501161144735
-0.026134028180393773
-8.563351866981182e-05
-0.0217832341293533
-0.05044949994911524
-0.016760093014507222
-0.05761206938877072
-0.05843331307373453
-0.015808182079778545
-0.03877787723513985
-0.01110515296198903
-0.07445803003758704
-0.05041642513120527
-0.07433892047904538
-0.0019469930423588028
-0.03561995051360463
-0.0024927661003187516
-0.09140441997633435
-0.06858503224537044
-0.0029763819978650993
-0.06646252664321865
-0.0019453301723330622
-0.0483533721144336
-0.043200331658161624
-0.0038179448820349023
-0.0025908052212336294
-0.008973656018632013
-0.024429514429496896
-0.005994621257479524
-0.08743341846747035
-0.0029791384582791213
-0.06520501896559304
-0.0016922651426029276
-0.006275811545157189
-0.028063756316338014
-5.1195715612038695e-06
-0.02379132738521366
-6.177588891021213e-05
-0.0033421775739785843
-8.818338657997438e-05
-0.022458328063875
-0.0001471443762320353
-0.020050816153300663
-0.020080354479261
-0.06478291088846673
-0.0051610916346483725
-6.765069493516492e-05
-0.024191826715811045
-0.00012957137437213064
-0.02960396709135905
-0.0026943316989589032
-5.7896514583055436e-05
-0.00012926018770738852
-0.060771364514658845
-0.04439245058870358
-0.0013532142654407973
-0.049625546450096654
-0.0020088820197560102
-0.013133994584063518
-0.0038706387910005923
-0.07831374053145015
-0.009012549244929806
-0.06563054543055918
-0.004007510278345785
-0.054945607358989325
-0.0051385948291791375
-0.008828163541303946
-0.035174501154734875
-0.007647669287979134
-0.05088300893103621
-0.08944833459018743
-0.08898420658723386
-0.02065995749403606
-0.040672696146703984
-0.013573114671491143
-0.040899336363314095
-0.017244850244463858
-4.2861665048782255e-05
-0.0001468607462769795
-0.04022093306632846
-0.0035245801625296723
-0.0641247623932604
-0.005199323316387262
-0.08196750974582698
-0.00471753319718114
-0.04573056404212121
-0.00536911229715527
-0.029562223518698735
-0.07898394562178297
-0.05823176479264864
-0.030380627000560444
-0.02921826539139821
-0.09145806351828782
-0.0004629781072087165
-0.00011912173288712566
-0.01926380538637906
-0.0002641857774275966
-0.052301387457568675
-0.08782396524471674
-0.02603074720781921
-0.047651391979005496
-0.030137040774609304
-0.005465131254882887
5.429362007679785e-07
-0.008467135130953995
-0.018999150635270443
-0.01675687235767761
5.176664087972178e-06
7.071554885414539e-06
1.0233596113115717e-06
-0.06457822594188505
-0.005008901785550296
-0.005451947625871182
-0.026719557417466625
-0.021267461199255693
-0.004773142363489991
-0.004305043512041897
-0.09623330776802637
-0.05120229024181343
-0.014271086516945619
-0.047237922448336904
-0.012002098392397085
-0.038425922352361655
-0.09364080889404408
-0.04190063496189902
-0.0022566460285026926
-0.05716638334070906
-0.003320637209105569
-0.08937053532160652
-0.010493038908996805
-0.07323920362270506
-0.014142293045469344
-0.09346499897244319
-0.04920944031845033
-0.006171143655091418
-0.06981262734232113
-0.008923717637719186
-0.048720478201269686
-0.015229013519460747
-0.000135668387524736
-0.00030723877767729744
-0.08061822852860533
-0.021294362041201755
-0.0024500876767991992
-0.0025535462564587057
-0.0718487670315905
-0.02953764618155619
-0.0603114577225469
-0.09404065429450172
-0.02216579601125996
-0.013143675516095396
-0.023681576824058505
-0.07224334483924352
-0.03995363353118761
-0.0170660417412782
-0.009640538043941393
-0.02956063928328143
-0.007018636771234434
-0.03991644848161334
-0.006709943543406476
-0.019482536940806882
-0.004076460212848882
-0.007981766319219288
-0.07210771473330005
-0.08548008541321482
-0.03281281776681
-0.0035678587108554888
-0.0037806716335670658
-0.020052914412070442
-0.00024322072658893422
-0.03840352268916918
-0.0004367142730828461
-0.04946775555375714
-0.008640070470405884
-0.00023717876995170986
-0.00041428350837816844
-0.050000629467378994
-0.022964691641452085
-0.06839225517847969
-0.016149946190973465
-0.005993776284559355
-0.015068496318707637
-0.028077303427054136
-0.0010646555340653161
-0.00023129923218282483
-0.00021828588527654616
-0.08928370382466716
-0.018176415687690267
-0.03246102943908152
-7.857678952289907e-05
-0.00018191044677585294
-0.07833372801548803
-0.0062552150203143515
-0.05328967222234953
-0.007192099308658102
-0.058393400714919656
-0.02990362624214505
-0.0040935484744074255
-0.07137087938587092
-0.006642175546982511
-0.08227102056837515
-0.0045364365854253874
-0.014241176932055464
-0.003160838130238894
-0.09660298367775591
-0.04336034938724266
-0.09412321790568208
-0.06042541913551667
-0.0004709402697889722
-0.02164835568890451
-0.0007816697890577235
-0.019631737399983026
-0.007436692540628042
-0.05343365480656158
-0.009506191637019984
-4.624645548209254e-06
-0.023647816269902068
-3.48270961296515e-05
-0.023084178418551635
-0.0036981143983456366
2.9390806058851153e-06
-2.2340951904976785e-05
-0.08700821206779374
-0.015786031076729167
-0.007824275239986106
-0.023010091415412874
-0.058797721904444974
-0.0008960978291511322
-0.03713967946876757
-0.001351529853993442
-0.02659767469382106
-0.0010702051275871974
-0.0021492581118475007
-0.060390616921750614
-0.05368241168802088
-0.009771118933851755
-0.05173274407302129
-0.009804598452503864
-0.0009123954823794837
-0.00014309547980720735
-0.02281811142635538
-0.0002808521917243881
-0.08325628633246313
-0.07404320341704743
-0.07752167397362192
-0.018472962331607626
-0.0026315665578749182
-0.06609664795208028
-0.00455573809619671
-0.05947472261889843
-0.001023894508766041
-0.007177791404490076
-0.0010345093970099732
-0.03199246619314358
-9.415566645242873e-05
-0.03140261156434812
-0.00022914035696420631
-0.04467018987286617
-0.03986987245728783
-0.00041811722216384474
-0.039180673602439535
-0.0007209662957999371
-0.09671400341954928
-0.028037133561094114
-0.0053015171264744285
-0.009433265160081536
-0.04932324731692582
-0.0002639665078699747
-0.029003346926257504
-0.0005135936625987256
-0.009721063674049846
-0.005860856997031739
-0.021501695556761777
-0.029764130622906195
-0.014459635205580476
-0.0006724521697692122
-0.047826790703021385
-0.0012790320498101725
-0.017457444366399018
-0.0007030163794134464
-3.6936170281104836e-05
-6.908922417343063e-05
-0.007516878030445887
-0.014326589856155267
-0.05248526493670478
-0.016316807234603613
-0.027664134924921206
-0.0793009930326983
-0.031424860341299855
-0.04297790335864161
-0.008296807636206646
-0.013069590916612002
-0.0012214124715591928
-0.00010268420535001844
-0.020258902395585567
-0.00016986548363297582
-0.018950088350477522
-0.02012660837958123
-0.008885332162271265
-0.023009459568798293
-0.048089268888216276
-0.021704389173099494
-0.00013890612753169438
-0.00031611673797232704
-0.024610468119753176
-0.09386576745177429
-0.00809025382408106
-0.0024923579808916636
-0.06925811201303834
-0.005973722616214207
-0.07014863969227388
-0.059185302174312004
-0.02684043307099655
-0.07761117662222007
-0.014361246806223256
-0.05872015960451073
-0.01437797289915102
-0.008320534901190082
-0.0698668683043165
-0.011229570206184411
-0.05616376027932716
-0.030471079604812792
-0.06458530207831584
-0.0005033811101939623
-0.00020303628060372054
-0.02371167133608389
-0.0005489039772027385
-0.012201369783697092
-0.004312652633883571
-0.08315119100589796
-0.011036892178778346
-0.07049439032543489