# vtk DataFile Version 1.0
2D Simulation C++
ASCII
DATASET UNSTRUCTURED_GRID
FIELD FieldData 1
NODES 1 2 int
2209 4256

POINTS 2209 double
0.0 0.0 0.0
0.0 1.0 0.0
1.0 1.0 0.0
1.0 0.0 0.0
0.0 0.02500000037252903 0.0
0.0 0.05000000074505806 0.0
0.0 0.07500000298023224 0.0
0.0 0.10000000149011612 0.0
0.0 0.125 0.0
0.0 0.15000000596046448 0.0
0.0 0.17499999701976776 0.0
0.0 0.20000000298023224 0.0
0.0 0.22499999403953552 0.0
0.0 0.25 0.0
0.0 0.2750000059604645 0.0
0.0 0.30000001192092896 0.0
0.0 0.32499998807907104 0.0
0.0 0.3499999940395355 0.0
0.0 0.375 0.0
0.0 0.4000000059604645 0.0
0.0 0.42500001192092896 0.0
0.0 0.44999998807907104 0.0
0.0 0.4749999940395355 0.0
0.0 0.5 0.0
0.0 0.5249999761581421 0.0
0.0 0.550000011920929 0.0
0.0 0.574999988079071 0.0
0.0 0.6000000238418579 0.0
0.0 0.625 0.0
0.0 0.6499999761581421 0.0
0.0 0.675000011920929 0.0
0.0 0.699999988079071 0.0
0.0 0.7250000238418579 0.0
0.0 0.75 0.0
0.0 0.7749999761581421 0.0
0.0 0.800000011920929 0.0
0.0 0.824999988079071 0.0
0.0 0.8500000238418579 0.0
0.0 0.875 0.0
0.0 0.8999999761581421 0.0
0.0 0.925000011920929 0.0
0.0 0.949999988079071 0.0
0.0 0.9750000238418579 0.0
0.02500000037252903 1.0 0.0
0.05000000074505806 1.0 0.0
0.07500000298023224 1.0 0.0
0.10000000149011612 1.0 0.0
0.125 1.0 0.0
0.15000000596046448 1.0 0.0
0.17499999701976776 1.0 0.0
0.20000000298023224 1.0 0.0
0.22499999403953552 1.0 0.0
0.25 1.0 0.0
0.2750000059604645 1.0 0.0
0.30000001192092896 1.0 0.0
0.32499998807907104 1.0 0.0
0.3499999940395355 1.0 0.0
0.375 1.0 0.0
0.4000000059604645 1.0 0.0
0.42500001192092896 1.0 0.0
0.44999998807907104 1.0 0.0
0.4749999940395355 1.0 0.0
0.5 1.0 0.0
0.5249999761581421 1.0 0.0
0.550000011920929 1.0 0.0
0.574999988079071 1.0 0.0
0.6000000238418579 1.0 0.0
0.625 1.0 0.0
0.6499999761581421 1.0 0.0
0.675000011920929 1.0 0.0
0.699999988079071 1.0 0.0
0.7250000238418579 1.0 0.0
0.75 1.0 0.0
0.7749999761581421 1.0 0.0
0.800000011920929 1.0 0.0
0.824999988079071 1.0 0.0
0.8500000238418579 1.0 0.0
0.875 1.0 0.0
0.8999999761581421 1.0 0.0
0.925000011920929 1.0 0.0
0.949999988079071 1.0 0.0
0.9750000238418579 1.0 0.0
1.0 0.9750000238418579 0.0
1.0 0.949999988079071 0.0
1.0 0.925000011920929 0.0
1.0 0.8999999761581421 0.0
1.0 0.875 0.0
1.0 0.8500000238418579 0.0
1.0 0.824999988079071 0.0
1.0 0.800000011920929 0.0
1.0 0.7749999761581421 0.0
1.0 0.75 0.0
1.0 0.7250000238418579 0.0
1.0 0.699999988079071 0.0
1.0 0.675000011920929 0.0
1.0 0.6499999761581421 0.0
1.0 0.625 0.0
1.0 0.6000000238418579 0.0
1.0 0.574999988079071 0.0
1.0 0.550000011920929 0.0
1.0 0.5249999761581421 0.0
1.0 0.5 0.0
1.0 0.4749999940395355 0.0
1.0 0.44999998807907104 0.0
1.0 0.42500001192092896 0.0
1.0 0.4000000059604645 0.0
1.0 0.375 0.0
1.0 0.3499999940395355 0.0
1.0 0.32499998807907104 0.0
1.0 0.30000001192092896 0.0
1.0 0.2750000059604645 0.0
1.0 0.25 0.0
1.0 0.22499999403953552 0.0
1.0 0.20000000298023224 0.0
1.0 0.17499999701976776 0.0
1.0 0.15000000596046448 0.0
1.0 0.125 0.0
1.0 0.10000000149011612 0.0
1.0 0.07500000298023224 0.0
1.0 0.05000000074505806 0.0
1.0 0.02500000037252903 0.0
0.9750000238418579 0.0 0.0
0.949999988079071 0.0 0.0
0.925000011920929 0.0 0.0
0.8999999761581421 0.0 0.0
0.875 0.0 0.0
0.8500000238418579 0.0 0.0
0.824999988079071 0.0 0.0
0.800000011920929 0.0 0.0
0.7749999761581421 0.0 0.0
0.75 0.0 0.0
0.7250000238418579 0.0 0.0
0.699999988079071 0.0 0.0
0.675000011920929 0.0 0.0
0.6499999761581421 0.0 0.0
0.625 0.0 0.0
0.6000000238418579 0.0 0.0
0.574999988079071 0.0 0.0
0.550000011920929 0.0 0.0
0.5249999761581421 0.0 0.0
0.5 0.0 0.0
0.4749999940395355 0.0 0.0
0.44999998807907104 0.0 0.0
0.42500001192092896 0.0 0.0
0.4000000059604645 0.0 0.0
0.375 0.0 0.0
0.3499999940395355 0.0 0.0
0.32499998807907104 0.0 0.0
0.30000001192092896 0.0 0.0
0.2750000059604645 0.0 0.0
0.25 0.0 0.0
0.22499999403953552 0.0 0.0
0.20000000298023224 0.0 0.0
0.17499999701976776 0.0 0.0
0.15000000596046448 0.0 0.0
0.125 0.0 0.0
0.10000000149011612 0.0 0.0
0.07500000298023224 0.0 0.0
0.05000000074505806 0.0 0.0
0.02500000037252903 0.0 0.0
0.5063124716256556 0.5047888495852477 0.0
0.7125466841382163 0.7041111280200198 0.0
0.7038952225210342 0.2957525604712231 0.0
0.2978907721993775 0.7081370146132243 0.0
0.29578281972033943 0.2980037323398086 0.0
0.7778071409891165 0.5066622046535065 0.0
0.503364050541476 0.22350744503567405 0.0
0.49312829740182856 0.7797766295514704 0.0
0.22371125000536468 0.4983684972974958 0.0
0.8297738859421718 0.8226008523905156 0.0
0.8211837376259999 0.17206146987043186 0.0
0.18155479273130676 0.8308918412590702 0.0
0.1719116666560852 0.18145789035400708 0.0
0.644108611644649 0.5673212603664454 0.0
0.5648662847197415 0.3681460351746259 0.0
0.4426472937941043 0.6368758466370326 0.0
0.3635881438412375 0.4299829541906841 0.0
0.8463219175137144 0.644988018122375 0.0
0.6453128696166632 0.15685624658952957 0.0
0.3514180723000471 0.8436128350500111 0.0
0.1567030364472454 0.35676174085587053 0.0
0.6493691233347116 0.843390885921158 0.0
0.843631771003686 0.35927714350621265 0.0
0.15905282748236618 0.6450174194059674 0.0
0.3595991675830753 0.15868663110910056 0.0
0.6752268541640968 0.4504434328649761 0.0
0.5848882943109346 0.6782848276500504 0.0
0.4476488861070206 0.3219831257563426 0.0
0.3293591282049471 0.5581167390530394 0.0
0.8838391935363286 0.5326968887432056 0.0
0.5324795383536035 0.11452231187177857 0.0
0.4681600220555147 0.8874051804646945 0.0
0.11425778629047736 0.4703105422516658 0.0
0.8988491629941476 0.7432347671337778 0.0
0.7432020842938203 0.10381019126993013 0.0
0.2600912553503637 0.8985845438943775 0.0
0.1044756463663342 0.25965822486121193 0.0
0.7462022771418485 0.8846920508250342 0.0
0.11972781941852542 0.7457313613787752 0.0
0.8829799177818664 0.2575416489581254 0.0
0.2571080280863049 0.12009647861265525 0.0
0.7431134368994775 0.6054809686240631 0.0
0.6102442640489996 0.25219207347842815 0.0
0.3963537020933543 0.7502115794987382 0.0
0.25535118696666137 0.39693924230845107 0.0
0.5243867666925207 0.5939058262230869 0.0
0.8999297638571306 0.8871746067931358 0.0
0.8858027431556604 0.10207359028236795 0.0
0.11714493902125417 0.9010295151482015 0.0
0.10206168364601571 0.11721289484707008 0.0
0.7632320643366548 0.39374232611915755 0.0
0.23939909958094094 0.6121839553894612 0.0
0.39190046381526866 0.23766563316044179 0.0
0.8991674972939877 0.43846983260663996 0.0
0.438012848102657 0.10364442768404392 0.0
0.566179893216685 0.8965094186766868 0.0
0.10405492567167396 0.5654229740865101 0.0
0.7894603750576692 0.7440587301947221 0.0
0.7437806907255333 0.21269706396657712 0.0
0.25864080889843555 0.7905011534860631 0.0
0.2127321848248836 0.258835944498547 0.0
0.7217243791907364 0.8023738001462273 0.0
0.7956221401739115 0.28458584025147665 0.0
0.20646537003332652 0.7192845984553888 0.0
0.2887517812712848 0.20312330327182523 0.0
0.595302267051911 0.49662840794155483 0.0
0.491889389491133 0.41365703027484685 0.0
0.42624242566993625 0.5485416985923334 0.0
0.6333867982313884 0.7603359501443308 0.0
0.6533202895930235 0.35589546053726506 0.0
0.49705407220473397 0.6944796350894541 0.0
0.35526625275467943 0.6448082096644872 0.0
0.35079426980870626 0.34960323882946914 0.0
0.9175118114547811 0.8172476011718195 0.0
0.8164755848533596 0.08499200269754449 0.0
0.18638367840605138 0.9181213945645538 0.0
0.08491699196271904 0.186159834956088 0.0
0.8291170823165365 0.9117801888364613 0.0
0.09222630686560061 0.829833578118431 0.0
0.9105673939627578 0.17348933117285914 0.0
0.17306273558139032 0.09235166080674127 0.0
0.6999108586461392 0.5196874120319511 0.0
0.650222463032021 0.6504533782422117 0.0
0.5136737441730468 0.3050219615110673 0.0
0.30100323752622377 0.486133874547304 0.0
0.9192404416126715 0.609005325275935 0.0
0.6145481617516814 0.086936831009314 0.0
0.39704718431384595 0.9218404197262118 0.0
0.08444396850784854 0.3883558165468058 0.0
0.6652938211714629 0.9207426696175935 0.0
0.08223364246642641 0.6640221377283912 0.0
0.9206237588158949 0.339551306900752 0.0
0.339457374181353 0.08263916156595458 0.0
0.8232606875250403 0.438136666167536 0.0
0.5679528539171836 0.8183083044063918 0.0
0.4366904758201266 0.1785728799308166 0.0
0.1792711085140715 0.5666081298203263 0.0
0.434738921666502 0.46004654731147776 0.0
0.8202265156866655 0.5714818417697729 0.0
0.5695085418563861 0.18270591322968974 0.0
0.43172772376327645 0.8204349884962868 0.0
0.18226359582393872 0.43322969136612144 0.0
0.7728264937626579 0.6692860868927831 0.0
0.6695349084840502 0.22680141142002985 0.0
0.33256006872163224 0.7774156536439993 0.0
0.22733531925867928 0.33331630321497036 0.0
0.9302952077829567 0.6858068218718107 0.0
0.6862135210688993 0.07353579554215521 0.0
0.314174499985041 0.9280382932279537 0.0
0.07533947503669927 0.31320590140274485 0.0
0.5624294011413156 0.7422216394281765 0.0
0.6034161338155526 0.4209524181039254 0.0
0.3762766796991677 0.5008415454161123 0.0
0.7356335713021068 0.46040796988831306 0.0
0.45653579180273923 0.2640845081008794 0.0
0.26764948243875414 0.544580696376039 0.0
0.58849567036146 0.6157860907537108 0.0
0.41919653830040493 0.38869823404363 0.0
0.5731037553952927 0.5437654570530764 0.0
0.5493602877544366 0.4501859490581911 0.0
0.9353148343254917 0.4976819899494124 0.0
0.49919811793981606 0.0676084022312239 0.0
0.5032780195547998 0.9336036376695908 0.0
0.06757134643359333 0.5039291022560703 0.0
0.8469358236824989 0.4999884053651625 0.0
0.4983231903631746 0.15500141012867538 0.0
0.5000574710943914 0.8437575290572062 0.0
0.15523460832892755 0.5045459997752295 0.0
0.8456822639513711 0.6991532084408678 0.0
0.6990772740764293 0.1568769901647414 0.0
0.30214997190380005 0.8455317632388382 0.0
0.15727918769164503 0.30291312181270086 0.0
0.7723093540691119 0.8394057459380546 0.0
0.8365162827363075 0.22987131570773975 0.0
0.166031036148566 0.7732999691878427 0.0
0.22934646285564864 0.1661148700763671 0.0
0.7632011738845395 0.3285669673216393 0.0
0.23867211772448593 0.6761679716057665 0.0
0.3270544426112499 0.23927385775447477 0.0
0.6406409256738533 0.30257614657574966 0.0
[...]
POINT_DATA 2209
SCALARS Psi double
LOOKUP_TABLE default
0.0
0.0
0.0
0.0
0.0
0.0
0.0
0.0
0.0
0.0
0.0
0.0
0.0
0.0
0.0
0.0
0.0
0.0
0.0
0.0
0.0
0.0
0.0
0.0
0.0
0.0
0.0
0.0
0.0
0.0
0.0
0.0
0.0
0.0
0.0
0.0
0.0
0.0
0.0
0.0
0.0
0.0
0.0
0.0
0.0
0.0
0.0
0.0
0.0
0.0
0.0
0.0
0.0
0.0
0.0
0.0
0.0
0.0
0.0
0.0
0.0
0.0
0.0
0.0
0.0
0.0
0.0
0.0
0.0
0.0
0.0
0.0
0.0
0.0
0.0
0.0
0.0
0.0
0.0
0.0
0.0
0.0
0.0
0.0
0.0
0.0
0.0
0.0
0.0
0.0
0.0
0.0
0.0
0.0
0.0
0.0
0.0
0.0
0.0
0.0
0.0
0.0
0.0
0.0
0.0
0.0
0.0
0.0
0.0
0.0
0.0
0.0
0.0
0.0
0.0
0.0
0.0
0.0
0.0
0.0
0.0
0.0
0.0
0.0
0.0
0.0
0.0
0.0
0.0
0.0
0.0
0.0
0.0
0.0
0.0
0.0
0.0
0.0
0.0
0.0
0.0
0.0
0.0
0.0
0.0
0.0
0.0
0.0
0.0
0.0
0.0
0.0
0.0
0.0
0.0
0.0
0.0
0.0
0.0
0.0
-0.03914513088718478
-0.0734521716720048
-0.009783278004981407
-0.046923589482829445
-0.009352950498593079
-0.023525970652190347
-0.008419540753693881
-0.07904031666045508
-0.016726359582484245
-0.06365035659810121
-0.0015821719034496372
-0.036944399235029284
-0.0017323468404655082
-0.04974230680813198
-0.020663967315967435
-0.056688531567872874
-0.02272033873295852
-0.030550641529320237
-0.003741454592411246
-0.0643307393133638
-0.005163243505414974
-0.0833630049147241
-0.005375298135529355
-0.017240073950262516
-0.003773350546201549
-0.02663295092338289
-0.07354301562764572
-0.015609754583997427
-0.03365403679329699
-0.009478408096214808
-0.002535994214114258
-0.0675745099714221
-0.00517625522879973
-0.026955847775395246
-0.0011497539559409105
-0.04992740623452214
-0.001427720049902528
-0.07037709951830322
-0.016088968795135824
-0.0015399384691973878
-0.0015044857812664498
-0.04707629808624726
-0.009574130531365129
-0.06611529825543051
-0.013015880890109554
-0.05537127648855742
-0.04012541359200497
-0.00021685730581922483
-0.028026592312588305
-0.00027407656590685355
-0.013243894819150276
-0.02748329056992159
-0.008352421027791886
-0.003899967692521292
-0.0020243382712330127
-0.0685336573754972
-0.006405447913860734
-0.06628560836143911
-0.004317945860444958
-0.04856701486366073
-0.004657445501285891
-0.0834086295714195
-0.005251575802078191
-0.031646599303442755
-0.004591761143845568
-0.038049062566414216
-0.02595484067742625
-0.04154998291948793
-0.08550613201294248
-0.016778131676252934
-0.07073347890198142
-0.04763872938851849
-0.014991461046299913
-0.027200382385566765
-0.00042155518219025675
-0.039639115643131995
-0.0005082700137187844
-0.053695964976883864
-0.015466468504074756
-0.0003980082129051015
-0.00047072717815691033
-0.035636572607936616
-0.06751364213975046
-0.014715710998823073
-0.023366528426545196
-0.00804495406308899
-0.0013482772727402535
-0.05327667918316461
-0.002037023565985191
-0.05876826698556589
-0.006221569032296343
-0.0012802810485314196
-0.0010567662304649952
-0.010895110632923727
-0.08402077018804627
-0.005408366773315269
-0.01566753428048668
-0.02994353677706578
-0.025343928664032102
-0.005697537661089305
-0.07357165629723864
-0.009448593099477577
-0.055351450834736304
-0.0067752252708446455
-0.05958587941831638
-0.008086979101946326
-0.010441552524238952
-0.0007940773123451222
-0.046909975147139515
-0.0010983696141113571
-0.0817079261192227
-0.026211642382213178
-0.03130457167728721
-0.022617261683559584
-0.011055633500822585
-0.0251766516602411
-0.06143957652445789
-0.021202716176930408
-0.0469636957806672
-0.03127637553188509
-0.0024511346776632343
-0.0009671772268551714
-0.050341001135497006
-0.002347419011115882
-0.012582993229854055
-0.004394972085776055
-0.0776303711097344
-0.009896712893424444
-0.04028275073514094
-0.0030993180225954175
-0.058259750603384355
-0.003850721368257073
-0.07589158091686718
-0.0023319322079507635
-0.028213567353909497
-0.0023194490482864884
-0.008872220856291179
-0.03342110945584043
-0.007113822973818964
-0.012579818934418712
-0.05665321748825686
-0.013592967913045076
-0.054293078488051906
-0.0014149558688856705
-0.004090202696458043
-0.0009690794986950198
-0.04508993815019027
-0.06706685284737181
-0.017554102527321817
-1.82311227985827e-05
-0.024242122853168464
-8.554411257967037e-06
-0.04802296854560665
-0.003073081464780023
-0.000762339915913163
-0.04609214088470272
-0.0014772412854422274
-0.013785325410469422
-0.00039282936851789185
-0.03869951304357712
-0.00047716400284568037
-0.04617203629617713
-0.006421117498926458
-0.00036553312885955234
-0.0004118756226863787
-0.05240806751284889
-0.002015616591950368
-0.04757273077329423
-0.002303049842558176
-0.08112857175344805
-0.003659959332081788
-0.019532352261044328
-0.0031039533657380614
-0.06252650344704502
-0.03913182586855693
-0.020256377542248988
-0.03425306081768818
-0.014467368658767039
-0.07894076572222683
-0.018792435418629173
-0.05248501734791274
-0.010140409175915351
-0.016446262071787083
-0.019214785444812244
-9.740778813324035e-05
-0.03009376529267093
-0.00012704185274036432
-0.04020091624830949
-0.011091738938368506
-0.00011899525063931019
-0.00015971964269296927
-0.0665918254318067
-0.018776909114367555
-0.01298565598121046
-0.03603303446091818
-0.07264012386577604
-0.01791543206700491
-0.0033458480286199014
-0.06856010155692675
-0.005453425040694589
-0.07543113393466154
-0.006262082278507236
-0.04402904546947676
-0.006170632519529295
-0.08421220853100421
-0.040038068251682706
-0.0067673102662665525
-0.0672686664482854
-0.009297154717579241
-0.0479240727894639
-0.00505976812752054
-0.0005225557688985577
-0.0005321648255688842
-0.047750390317057016
-0.0006032829200397525
-0.0350890607892023
-0.0007071576690413406
-0.010547823328556914
-0.0062295551863407765
-0.02099595081760271
-0.06101724761427095
-0.0702607246886773
-0.0028585050617176543
-0.04039612895705648
-0.003005122039346077
-0.013215725761032339
-0.039642227860772816
-0.010607129062514601
-0.003868428603616187
-0.07497338052781531
-0.002480881847372856
-0.010163009587213168
-0.08646959231401652
-0.05689275437333027
-0.08602070799215174
-0.03680351139324803
-0.05066706236145833
-0.006572366600992942
-0.026136230147521974
-0.005028263227979099
-0.024710614009882146
-0.015984417271696017
-0.0176910833469069
-0.0010111730706098938
-0.0005920462547140942
-0.04296965592624356
-0.0019716902576715017
-0.0672683204723718
-0.024806639278259348
-0.001203252803675309
-0.0012882418153548068
-0.006299310381185936
-0.00247710760817015
-0.0703865487726888
-0.006207629832478762
-0.016241229166027202
-0.008327063838764252
-0.02235628856505482
-0.030997391057328072
-0.04075456186815017
-0.024571220753944727
-0.0021902268240974704
-0.059152106698038116
-0.0029295909755350947
-0.005065014644346561
-0.0002438701003063318
-0.02920484972340514
-0.0002649026145338701
-0.00254286374237536
-0.00031201847866140284
-0.034404310534062524
-0.0005568423816701147
-0.020515027968335344
-0.07528543640239088
-0.023210196049171346
-0.03152685225483724
-0.037718271053903116
-0.08127389200745465
-0.04461079728748418
-0.0011114266122891523
-0.04397003279143013
-0.0012871770237276431
-0.06779293418776045
-0.007245857997566946
-0.05154531440207766
-0.007678676582230367
-0.05227506528214787
-0.0004454007067201931
-0.025539650395306052
-0.0005279932734527966
-0.04473558327845068
-0.016560456356711904
-0.07693747342111093
-0.04751230628623306
-0.02518159627887015
-0.029017030040302
-0.08271544891239745
-0.021054249417332364
-0.0253802509014939
-0.04500423421443195
-0.02774301730129736
-0.028785509658292855
-0.011319001387019008
-0.013807099631216627
-0.021630438662800774
-0.059859699069752234
-0.06902223890883344
-0.009004433218952848
-0.0001230450687441302
-0.02928547121153324
-0.0001521644558890079
-0.0377364885722878
-0.005412964536637382
-0.00015228715431479182
-0.0001905045908453963
-0.027694480615009894
-0.03639871554452071
-0.0398788951433949
-0.008415310851501462
-0.012660163659162865
-0.01639256083147973
-0.004487210235076634
-0.07722334875472606
-0.008657701334130538
-0.0753819541813478
-0.012829091043857667
-0.002927527209258868
-0.0022921880812131483
-0.03474598039556786
-0.0017330915187534165
-0.00036344446094684285
-0.00031419043550846767
-0.002134992926698738
-0.0004752026804579344
-0.032992460043668376
-0.0007966506974675187
-0.008436746611427919
-0.0038067291901332035
-0.0789987753577619
-0.010511921920946224
-0.01920322648286527
-0.006985225666516272
-0.08285633580576421
-0.004059753208459115
-0.014419514738601733
-0.009403269874072088
-0.06159287773182022
-0.01146880016105811
-0.06301601792201907
-0.01557495621373754
-0.000868311426083245
-0.0009290897647835813
-0.06471195754685218
-0.02854896640091677
-0.0007407854742073991
-0.04468897681631551
-0.0008881676980222814
-0.019622584005014456
-0.002541361328021261
-0.06317442534971167
-0.0036658678555874886
-0.013933904631666461
-1.899666222280362e-05
-0.02279900255406978
-2.9731235685104663e-05
-0.0071779630311908
-0.025804996493125874
-2.3695100709409717e-05
-1.3275615698787124e-05
-0.07099729371169346
-0.045488134195822164
-0.004776686180411316
-0.06102840875316241
-0.00597221879434496
-0.06744996346275675
-0.01075242817809421
-0.0016266123585573994
-0.0014481503520580913
-0.07114972418180404
-0.01307544934061254
-0.04752321142526878
-0.012157134022089837
-0.0078033530637158744
-0.01373534900419287
-0.027292722908686406
-0.017835850341805418
-0.015557137930056678
-0.006334082719391163
-0.015037351946757399
-0.007361013816845074
-0.0016437825298654311
-0.05946486004072061
-0.002981838431618712
-0.0734799416432445
-0.03284958013003704
-0.04441345462525382
-0.053395800569108434
-0.05510333653516653
-0.012380543307509402
-0.015129481688582969
-0.027536188148392815
-0.004534394038770612
-0.06963215585008281
-0.006777828294467682
-0.009569442977544092
-0.006622718296749193
-0.026847285495174997
-0.08537690784885633
-0.03149173184105273
-0.05954683005373651
-0.00524759328374867
-0.05471104772329189
-0.0059572396169746515
-0.0010080467233336517
-0.00034738744713432165
-0.032400355370268086
-0.0007735196630653046
-0.05485056992845713
-0.05377611675218456
-0.06336043194661108
-0.026985899106051647
-0.022661366561793867
-0.012907521561445652
-0.030964533027051308
-0.06781223270384083
-0.07170977506840281
-0.07950983995385805
-0.0029991924491106358
-0.02535715676782958
-0.0027781480728667827
-0.07847556343049118
-0.0038731491034917085
-0.03720568071817216
-0.0038174798611748696
-0.04398471632491538
-0.002230754983831544
-0.05268364711569135
-0.002653141245153341
-0.01955070107298361
-0.001131033162335444
-0.05129095343766501
-0.0015101811431566428
-0.02141494037026802
-0.00936234149991401
-0.020864573922450308
-0.07600943399886084
-0.009895442504437945
-0.0548537370185385
-0.010672387133379861
-0.03184805892522835
-0.017206229531926583
-0.0028274487833880343
-0.00022008463708347232
-0.026207434169359455
-0.00025621041317636345
-0.024536181388590084
-0.024299289357625407
-0.05222077622112379
-0.011674626729068494
-0.0012855848328160214
-0.05282271126418349
-0.0017734289704180585
-0.008189743285526517
-0.04063017517603042
-0.007419613100254414
-0.032472906298447665
-0.0002714726223459422
-0.03426458737444962
-0.0003350305163045516
-0.032389588188722264
-0.0018460471121279772
-0.0002460186821179456
-0.0002449738223767674
-0.0006467677404708009
-0.00030533863023656454
-0.030300386490766513
-0.0008024144873056337
-0.004265147286045075
-0.0012091329551177437
-0.054277741644839304
-0.0025724679363872504
-0.010710158738794596
2.2540977753853206e-06
-0.012640237453358138
2.8037832408876714e-06
-0.0642955251922383
-0.018135642740074905
-0.010518318617948707
-0.028925212515042622
-0.058637229745389326
-0.0008067531027509896
-0.02934466657373345
-0.0009122618353447496
-0.030007924451472944
-0.002312951156454058
-0.00014081462775745942
-0.00016603430209495088
-0.006223570344949725
-0.012563772387956494
-0.019228451536394367
-0.08037862516034172
-0.03408454200128461
-0.05999997705777485
-0.00578638088618983
-0.0016035127158441178
-0.0011898909029005515
-0.08101592756099706
-0.08679329912271723
-0.07314482736338783
-0.02298405737499874
-0.0017664918285200694
-0.0017751367254011444
-0.05656113031386836
-0.0007537675101467328
-0.008489026535530204
-0.000769058739902456
-0.07541372596950638
-0.06636062538206039
-0.016133025972838184
-0.0005923290628588474
-0.04311483554301098
-0.0007315780195201796
-0.035790070752935436
-0.0022770207960635487
-0.0011336074732110543
-0.055361565739640295
-0.0033317594135232015
-0.03186755977476894
-0.0011302576888647942
-0.0004481406954626238
-0.0003012967092633079
-0.06147852080462256
-0.045555677191077296
-0.06095536480075075
-0.029223670091532938
-0.06927255250081342
-0.005349748638103727
-0.07600571747285637
-0.0028648677617746773
-0.009461315169189391
-0.0528124167802534
-0.02928414473434933
-0.013268180536553636
-0.020195513240777008
-0.08511713936430762
-0.011317854486472533
-0.015396237838530558
-0.00896654501880816
-6.126341541228633e-05
-4.792143786758877e-05
-6.795226435735326e-05
-0.02792560802987714
-0.0040358246156246905
-0.025544884492235204
-7.918107703960825e-05
-0.0159929614391188
-0.04137779131262085
-0.012630085472412882
-0.04220675543127502
-0.04216418411291646
-0.011941441381030532
-0.032329999133142426
-0.00859289809381098
-0.06087476210497206
-0.03753329000373309
-0.06977314708323162
-0.001984619164864245
-0.034537851079040685
-0.0020997804831933433
-0.07946600257296109
-0.061855176295350436
-0.0028338189824816725
-0.06126309364547061
-0.0019776580595220767
-0.04646772454072417
-0.04209463810835115
-0.0031225131464088806
-0.0021778891720311
-0.007050162696851524
-0.020820752303802703
-0.004832518330287801
-0.07613720637299852
-0.002359253829124699
-0.061885945044437965
-0.0014291234289369793
-0.005279253612744067
-0.027151268625701924
-4.4126764017823214e-05
-0.023659412883597568
-6.560662639323671e-05
-0.003065723207300461
-0.00010113333811881881
-0.022049301674754336
-0.0001211252329611341
-0.014883399463488973
-0.01505923275285136
-0.05347819298120567
-0.00473787390481307
-9.09813921834036e-05
-0.02340240087124966
-0.00011132200131299133
-0.028591515359931992
-0.0026456676439571736
-9.527608309830722e-05
-0.0001196267503749141
-0.044654270370513796
-0.03958281733622422
-0.0014146307765633868
-0.04879002897775695
-0.0016759190079686846
-0.009725122162624882
-0.0032137803428500403
-0.07339350197506844
-0.007166462028890179
-0.05722757364711545
-0.0036291776458382673
-0.052193866574272337
-0.0041221517488006735
-0.007127103026395274
-0.03080747588053232
-0.006048837064376307
-0.03725900434316865
-0.08303645510276875
-0.0827371465766439
-0.015239799982129544
-0.033133546172932155
-0.010378655649175646
-0.039824161956279906
-0.017349311567186103
-0.0001085440806206407
-0.00014739200817496655
-0.033074521696134826
-0.003150872019811333
-0.06128007046065445
-0.004125891270072841
-0.07355392373091818
-0.004221799787376592
-0.042743267782674295
-0.004329879903718056
-0.021305992572470376
-0.061283172459684274
-0.04328820219237322
-0.021862289152807562
-0.0217008239722524
-0.08158676690608228
-0.0003920445688156949
-0.00010116267102562422
-0.01893293620140441
-0.00019413978181556516
-0.04023461971910095
-0.08061360453270391
-0.019051741708322124
-0.03441882998249178
-0.022077139690296933
-0.00536627630356415
-3.885949030051664e-07
-0.008188764296762813
-0.018460875459588483
-0.016256286778982085
1.1852750553484494e-06
1.971674390691643e-06
-3.183455607742098e-07
-0.05009051632162799
-0.0043117961428871115
-0.004551036876453557
-0.024212014325824933
-0.018815124708202284
-0.0038864650538798355
-0.0035333154464259127
-0.08137287280936306
-0.036698100261706314
-0.010949521313179264
-0.04015906403907307
-0.009243481129553909
-0.027382367239819336
-0.08086230053260031
-0.035819067729238555
-0.0021664532712116734
-0.05547016816529642
-0.002682983252894791
-0.07221614761402373
-0.00832446333653634
-0.06531300731515552
-0.010825851622161561
-0.07739506827731628
-0.039306936221055584
-0.005211221851153911
-0.06494691709530626
-0.006960436388990424
-0.04752548224317041
-0.015356106795321274
-0.00023378897260516355
-0.0002925081741126886
-0.07648786049665549
-0.01996201754176423
-0.002329970785930214
-0.002176521893029476
-0.05439387669044272
-0.021277761431779327
-0.047749026122519515
-0.08464283216878594
-0.016325747353554274
-0.01009903222043871
-0.018153433673683265
-0.055881430025266826
-0.029090914128500844
-0.0127185878221401
-0.007541411203670478
-0.024203118885191856
-0.005894588086999715
-0.0357835936529345
-0.005365814015065661
-0.01447456347827116
-0.0034306267274892065
-0.006269151457919027
-0.062080276137660796
-0.07950403099233415
-0.030728220509427702
-0.0033067406633822036
-0.0031475428046037167
-0.018242132195281768
-0.0003168297931388325
-0.0377809570621887
-0.0003861432232634384
-0.04801427542198703
-0.008761032579614563
-0.0003302372673245982
-0.0003873111635072106
-0.036070370807906996
-0.01684239302790499
-0.05102546283398557
-0.011888830318524229
-0.004840888966495879
-0.01203453650824889
-0.026947349330440837
-0.000893583334492447
-0.00022833334242325823
-0.00018489140387943637
-0.07222490149876168
-0.017096322424343356
-0.031892044994656095
-0.00013324794949114412
-0.00016877068289621733
-0.06807169839851784
-0.0053565612169440505
-0.0491576908795961
-0.005692019215631354
-0.042462928317230086
-0.023347405042972707
-0.0035059889044734326
-0.06748918214104198
-0.005217759232378656
-0.0772668536525076
-0.003701262036595366
-0.012416229801384553
-0.0026270721212124136
-0.08413283915588575
-0.03262257153637101
-0.08591812565555497
-0.058594288324266754
-0.0006184706936404026
-0.021569488302003902
-0.0007054344396106054
-0.014574627717708899
-0.005675008872904429
-0.05127226358337095
-0.009160743131100754
-2.4552117031065795e-05
-0.023100286862412927
-3.464647039409237e-05
-0.02268161132974591
-0.0037284263804147825
-1.3797579956126929e-05
-2.268998453115122e-05
-0.06998566309022905
-0.011676318602876023
-0.006198664184396923
-0.018660994892466896
-0.055639143535368175
-0.001039178196127445
-0.03682924988997663
-0.0011751131843184515
-0.01923935557554847
-0.0009514322317660299
-0.0016888837092605444
-0.04729099222329734
-0.04048092325829561
-0.007858856997066411
-0.045797793583138575
-0.007650342234351551
-0.0007722615821595327
-0.00012669822351694973
-0.02220617620519708
-0.00021084838150042614
-0.06833415672933402
-0.0698678778703361
-0.07236679533928339
-0.014367938897996684
-0.002294865224096318
-0.0631728857381158
-0.003569754645868805
-0.05698491812708018
-0.0009903097195540992
-0.006604096890302348
-0.0009017503537577163
-0.03067275640263095
-0.00017109768161620477
-0.03136154842218323
-0.00021847871555600234
-0.03500636331857401
-0.037473189011581635
-0.000542887384746659
-0.03908327901001326
-0.0006449543612327551
-0.08623199940719745
-0.02120728784449068
-0.004402163519964136
-0.007341101251539297
-0.0476485270602146
-0.0003929333254954923
-0.029117343925617194
-0.0004716804879007534
-0.0075062632970388935
-0.004714198344500516
-0.018065627696737235
-0.021963964857539774
-0.012108491757142686
-0.0006938928098949861
-0.04675878579511429
-0.0010459279139743852
-0.017392654593707736
-0.0006208560938076191
-5.363250013560204e-05
-5.972813828106813e-05
-0.006054242959672801
-0.011139288264834296
-0.03768480870209268
-0.012333974685884168
-0.021003524112436563
-0.06174479706620764
-0.0226241139222361
-0.03298956469741032
-0.006683242583919988
-0.010066131171210019
-0.0010311318424845888
-9.515772617559857e-05
-0.02006809184136854
-0.00012896008160881493
-0.014150145240714793
-0.014690694613659523
-0.006984885030353284
-0.01840681202647676
-0.046674371713533835
-0.02194027455843034
-0.00024177339315532826
-0.00030252032577310345
-0.017962254810969927
-0.0852084940893028
-0.005993215436618403
-0.002100775023991729
-0.06582363827167632
-0.004805450353321816
-0.05231333007649466
-0.04741590928895358
-0.01984675240676975
-0.07090925645392006
-0.011072992383544443
-0.050283474709488574
-0.010960042259949045
-0.0068087002975284775
-0.06357577175175275
-0.008687462715761905
-0.04279739697324573
-0.022789656150139594
-0.05213952337109192
-0.0004014197670041508
-0.00017156409405841655
-0.022671608096482637
-0.00041415387743348736
-0.00904683173640008
-0.0035538453868590478