# vtk DataFile Version 1.0
2D Simulation C++
ASCII
DATASET UNSTRUCTURED_GRID
FIELD FieldData 1
NODES 1 2 int
2209 4256

POINTS 2209 double
0.0 0.0 0.0
0.0 1.0 0.0
1.0 1.0 0.0
1.0 0.0 0.0
0.0 0.02500000037252903 0.0
0.0 0.05000000074505806 0.0
0.0 0.07500000298023224 0.0
0.0 0.10000000149011612 0.0
0.0 0.125 0.0
0.0 0.15000000596046448 0.0
0.0 0.17499999701976776 0.0
0.0 0.20000000298023224 0.0
0.0 0.22499999403953552 0.0
0.0 0.25 0.0
0.0 0.2750000059604645 0.0
0.0 0.30000001192092896 0.0
0.0 0.32499998807907104 0.0
0.0 0.3499999940395355 0.0
0.0 0.375 0.0
0.0 0.4000000059604645 0.0
0.0 0.42500001192092896 0.0
0.0 0.44999998807907104 0.0
0.0 0.4749999940395355 0.0
0.0 0.5 0.0
0.0 0.5249999761581421 0.0
0.0 0.550000011920929 0.0
0.0 0.574999988079071 0.0
0.0 0.6000000238418579 0.0
0.0 0.625 0.0
0.0 0.6499999761581421 0.0
0.0 0.675000011920929 0.0
0.0 0.699999988079071 0.0
0.0 0.7250000238418579 0.0
0.0 0.75 0.0
0.0 0.7749999761581421 0.0
0.0 0.800000011920929 0.0
0.0 0.824999988079071 0.0
0.0 0.8500000238418579 0.0
0.0 0.875 0.0
0.0 0.8999999761581421 0.0
0.0 0.925000011920929 0.0
0.0 0.949999988079071 0.0
0.0 0.9750000238418579 0.0
0.02500000037252903 1.0 0.0
0.05000000074505806 1.0 0.0
0.07500000298023224 1.0 0.0
0.10000000149011612 1.0 0.0
0.125 1.0 0.0
0.15000000596046448 1.0 0.0
0.17499999701976776 1.0 0.0
0.20000000298023224 1.0 0.0
0.22499999403953552 1.0 0.0
0.25 1.0 0.0
0.2750000059604645 1.0 0.0
0.30000001192092896 1.0 0.0
0.32499998807907104 1.0 0.0
0.3499999940395355 1.0 0.0
0.375 1.0 0.0
0.4000000059604645 1.0 0.0
0.42500001192092896 1.0 0.0
0.44999998807907104 1.0 0.0
0.4749999940395355 1.0 0.0
0.5 1.0 0.0
0.5249999761581421 1.0 0.0
0.550000011920929 1.0 0.0
0.574999988079071 1.0 0.0
0.6000000238418579 1.0 0.0
0.625 1.0 0.0
0.6499999761581421 1.0 0.0
0.675000011920929 1.0 0.0
0.699999988079071 1.0 0.0
0.7250000238418579 1.0 0.0
0.75 1.0 0.0
0.7749999761581421 1.0 0.0
0.800000011920929 1.0 0.0
0.824999988079071 1.0 0.0
0.8500000238418579 1.0 0.0
0.875 1.0 0.0
0.8999999761581421 1.0 0.0
0.925000011920929 1.0 0.0
0.949999988079071 1.0 0.0
0.9750000238418579 1.0 0.0
1.0 0.9750000238418579 0.0
1.0 0.949999988079071 0.0
1.0 0.925000011920929 0.0
1.0 0.8999999761581421 0.0
1.0 0.875 0.0
1.0 0.8500000238418579 0.0
1.0 0.824999988079071 0.0
1.0 0.800000011920929 0.0
1.0 0.7749999761581421 0.0
1.0 0.75 0.0
1.0 0.7250000238418579 0.0
1.0 0.699999988079071 0.0
1.0 0.675000011920929 0.0
1.0 0.6499999761581421 0.0
1.0 0.625 0.0
1.0 0.6000000238418579 0.0
1.0 0.574999988079071 0.0
1.0 0.550000011920929 0.0
1.0 0.5249999761581421 0.0
1.0 0.5 0.0
1.0 0.4749999940395355 0.0
1.0 0.44999998807907104 0.0
1.0 0.42500001192092896 0.0
1.0 0.4000000059604645 0.0
1.0 0.375 0.0
1.0 0.3499999940395355 0.0
1.0 0.32499998807907104 0.0
1.0 0.30000001192092896 0.0
1.0 0.2750000059604645 0.0
1.0 0.25 0.0
1.0 0.22499999403953552 0.0
1.0 0.20000000298023224 0.0
1.0 0.17499999701976776 0.0
1.0 0.15000000596046448 0.0
1.0 0.125 0.0
1.0 0.10000000149011612 0.0
1.0 0.07500000298023224 0.0
1.0 0.05000000074505806 0.0
1.0 0.02500000037252903 0.0
0.9750000238418579 0.0 0.0
0.949999988079071 0.0 0.0
0.925000011920929 0.0 0.0
0.8999999761581421 0.0 0.0
0.875 0.0 0.0
0.8500000238418579 0.0 0.0
0.824999988079071 0.0 0.0
0.800000011920929 0.0 0.0
0.7749999761581421 0.0 0.0
0.75 0.0 0.0
0.7250000238418579 0.0 0.0
0.699999988079071 0.0 0.0
0.675000011920929 0.0 0.0
0.6499999761581421 0.0 0.0
0.625 0.0 0.0
0.6000000238418579 0.0 0.0
0.574999988079071 0.0 0.0
0.550000011920929 0.0 0.0
0.5249999761581421 0.0 0.0
0.5 0.0 0.0
0.4749999940395355 0.0 0.0
0.44999998807907104 0.0 0.0
0.42500001192092896 0.0 0.0
0.4000000059604645 0.0 0.0
0.375 0.0 0.0
0.3499999940395355 0.0 0.0
0.32499998807907104 0.0 0.0
0.30000001192092896 0.0 0.0
0.2750000059604645 0.0 0.0
0.25 0.0 0.0
0.22499999403953552 0.0 0.0
0.20000000298023224 0.0 0.0
0.17499999701976776 0.0 0.0
0.15000000596046448 0.0 0.0
0.125 0.0 0.0
0.10000000149011612 0.0 0.0
0.07500000298023224 0.0 0.0
0.05000000074505806 0.0 0.0
0.02500000037252903 0.0 0.0
0.506392047246559 0.5055258488988206 0.0
0.7127758104555625 0.7045593408257724 0.0
0.7043103596431596 0.29557963660096376 0.0
0.2983541826213116 0.7086150220153664 0.0
0.2955772932835639 0.2986896057497768 0.0
0.7784707674644418 0.5054969937076299 0.0
0.5032026175813153 0.22373274493389098 0.0
0.49383803427082584 0.7809179271653708 0.0
0.22390392692529024 0.49922710624422767 0.0
0.8292667905772877 0.8229396020014144 0.0
0.8223425424706862 0.1727031570433188 0.0
0.1807660625609358 0.8304451095161873 0.0
0.1727195075420074 0.18084528978576092 0.0
0.6444157706445166 0.5674957355076484 0.0
0.564673635294999 0.3686920465964692 0.0
0.44268743297602386 0.637602942546027 0.0
0.36311663021664947 0.43127953395218677 0.0
0.846915804972306 0.644681773613783 0.0
0.6455374926169433 0.15659210718126768 0.0
0.35219834790202825 0.8440355571588208 0.0
0.15632655651905486 0.35762991882081807 0.0
0.6488945705497783 0.8446182139179412 0.0
0.8444891428011568 0.3588175712581755 0.0
0.15852748295027713 0.6448219215744037 0.0
0.359614838897933 0.15877668786894306 0.0
0.6752408667275488 0.4491501345845677 0.0
0.5850089664821925 0.6792379643733656 0.0
0.4476086095424267 0.3229540810070397 0.0
0.32932694514019545 0.5594014886435575 0.0
0.8846813830726431 0.5320938328325924 0.0
0.5324034729693502 0.11441275263284754 0.0
0.46883933835262837 0.8884117774199368 0.0
0.11392845729211025 0.47111557847357793 0.0
0.8988473055122178 0.7431682494507759 0.0
0.7436356365592391 0.10393562569234163 0.0
0.26009394184731505 0.898363596998441 0.0
0.10478827547284889 0.26016719313768055 0.0
0.7454614351190282 0.8858559169157562 0.0
0.11895580375840849 0.7451080816541082 0.0
0.8843797914153075 0.25830168975530665 0.0
0.2579865952746426 0.11937544886418133 0.0
0.7437555072284466 0.6051034426356157 0.0
0.610343883113285 0.25205203630190637 0.0
0.3966738803316138 0.750764839065701 0.0
0.25484395091786083 0.3978918684070168 0.0
0.524512144685587 0.594513246417673 0.0
0.8997044143395506 0.887537781823159 0.0
0.8868543248232658 0.10254549908127258 0.0
0.11659479079372698 0.9005768219762972 0.0
0.10260857597896267 0.11649850825720391 0.0
0.7638229120214313 0.3924652190443958 0.0
0.23938288987088802 0.6128807023724586 0.0
0.39154293762502096 0.23820863099667702 0.0
0.8998261938671054 0.43799728532963006 0.0
0.4379596571969683 0.1037534736914438 0.0
0.5661064201658844 0.8974541814831184 0.0
0.10358148181591827 0.5656577488406751 0.0
0.7893449009917335 0.7441413679851505 0.0
0.7441565589644821 0.21267443172169392 0.0
0.25841084471579034 0.7903769068323456 0.0
0.2128830592382693 0.2589165706981167 0.0
0.7209378706292778 0.8031110348358286 0.0
0.7966996781566943 0.28469577414973923 0.0
0.2064328927741318 0.7189709062848197 0.0
0.28889978073041866 0.20297985245693584 0.0
0.5953038575117934 0.4966810400854723 0.0
0.49158870252496245 0.4147406201728582 0.0
0.42587197762738577 0.5495484814308721 0.0
0.6332481035179994 0.7611539415206724 0.0
0.6534481404400122 0.3553812975343739 0.0
0.49734277660393345 0.6956439122845489 0.0
0.3550663326026538 0.645468510349207 0.0
0.35004706331247204 0.35056387434339403 0.0
0.9171274670065717 0.8172479223504343 0.0
0.8173453098760158 0.08563043200060448 0.0
0.18602395238764513 0.9177596107581623 0.0
0.08549478552738048 0.18609574404277388 0.0
0.8288176084467588 0.912445488406788 0.0
0.09143533905435322 0.829233389027014 0.0
0.9118547391421333 0.17399501641323312 0.0
0.17393433578193693 0.09146839857267865 0.0
0.7003784362490573 0.5188835154384666 0.0
0.6506030428808888 0.650760803760826 0.0
0.5137472632866512 0.3057092869712678 0.0
0.30098785502113384 0.4874564163777597 0.0
0.9198221609447524 0.608551967905398 0.0
0.6144662818957051 0.08677496692646035 0.0
0.3976324309248018 0.9221442981174354 0.0
0.0841864118696015 0.3889902861106246 0.0
0.6646540766703195 0.9215052954532039 0.0
0.08198136387193775 0.6636868949503334 0.0
0.9213500023725918 0.33974532108396766 0.0
0.3398282134587807 0.08220933899920306 0.0
0.8239627953910836 0.4369934115425726 0.0
0.5680554373009878 0.8196629027745399 0.0
0.43648144076138107 0.17871054377641227 0.0
0.17925502435671956 0.5670775087656429 0.0
0.4343649554926989 0.46139856886736824 0.0
0.8210878761413242 0.5704722512458013 0.0
0.5693883576289558 0.18266464328702367 0.0
0.4323628783415456 0.8213200786362589 0.0
0.182047220754561 0.4339167467124994 0.0
0.7730647994808041 0.6693624818412613 0.0
0.6697516731803783 0.22656203797348137 0.0
0.3330862099591465 0.7777154145263535 0.0
0.22687239197994832 0.33413347986512454 0.0
0.9305685946866366 0.6853363805512936 0.0
0.6862788606708466 0.07335885615861962 0.0
0.31448696416601524 0.9282322569258274 0.0
0.07517694930845098 0.3137080846139131 0.0
0.5628789056430024 0.7433361080180584 0.0
0.6032317248810751 0.4208597054906887 0.0
0.37605449325810947 0.5021121648435155 0.0
0.7361423023963672 0.45896145359592644 0.0
0.45650547739604447 0.2649210971720079 0.0
0.2677365585319627 0.5455610003727771 0.0
0.588588845308733 0.6165889539665225 0.0
0.41859235290761637 0.38992047835075305 0.0
0.5730513003987461 0.5440882430572026 0.0
0.5491788427056165 0.4508382909679067 0.0
0.9361709598246455 0.49755772532493553 0.0
0.49906705065446555 0.06764359947490346 0.0
0.5034998994838931 0.934377989439757 0.0
0.06733190598887563 0.5044850325753857 0.0
0.8476955344743046 0.4990873217043296 0.0
0.49789159369106184 0.15524198071433684 0.0
0.5005051463085454 0.8451511130051029 0.0
0.1550220428327162 0.5050987501311567 0.0
0.8461558463492432 0.6990699898579527 0.0
0.6995507491997563 0.15675981535202332 0.0
0.30268719681506023 0.8455838561235748 0.0
0.15712768204444408 0.3036398002191445 0.0
0.7716458104197224 0.8400226345265102 0.0
0.8377745963753296 0.2304805490318651 0.0
0.16536151418519024 0.7727237451068799 0.0
0.22999141154479957 0.16523984667691816 0.0
0.7640432206175986 0.32805692446793494 0.0
0.2387792822763838 0.676407930625556 0.0
0.3269416386881388 0.23961165355340786 0.0
0.6407742034607529 0.30234634006635597 0.0
[...]
POINT_DATA 2209
SCALARS Psi double
LOOKUP_TABLE default
0.0
0.0
0.0
0.0
0.0
0.0
0.0
0.0
0.0
0.0
0.0
0.0
0.0
0.0
0.0
0.0
0.0
0.0
0.0
0.0
0.0
0.0
0.0
0.0
0.0
0.0
0.0
0.0
0.0
0.0
0.0
0.0
0.0
0.0
0.0
0.0
0.0
0.0
0.0
0.0
0.0
0.0
0.0
0.0
0.0
0.0
0.0
0.0
0.0
0.0
0.0
0.0
0.0
0.0
0.0
0.0
0.0
0.0
0.0
0.0
0.0
0.0
0.0
0.0
0.0
0.0
0.0
0.0
0.0
0.0
0.0
0.0
0.0
0.0
0.0
0.0
0.0
0.0
0.0
0.0
0.0
0.0
0.0
0.0
0.0
0.0
0.0
0.0
0.0
0.0
0.0
0.0
0.0
0.0
0.0
0.0
0.0
0.0
0.0
0.0
0.0
0.0
0.0
0.0
0.0
0.0
0.0
0.0
0.0
0.0
0.0
0.0
0.0
0.0
0.0
0.0
0.0
0.0
0.0
0.0
0.0
0.0
0.0
0.0
0.0
0.0
0.0
0.0
0.0
0.0
0.0
0.0
0.0
0.0
0.0
0.0
0.0
0.0
0.0
0.0
0.0
0.0
0.0
0.0
0.0
0.0
0.0
0.0
0.0
0.0
0.0
0.0
0.0
0.0
0.0
0.0
0.0
0.0
0.0
0.0
-0.024082350875988548
-0.044711940388053664
-0.007174575145985205
-0.03608479132143058
-0.006912960411619342
-0.014284657292364443
-0.0061223268642830704
-0.058503965914389125
-0.012301606446029645
-0.049727492862674104
-0.0015890540907766352
-0.034380053378498726
-0.001570305715489867
-0.028539638718076233
-0.013421628018707808
-0.03716576926529625
-0.015309589986816472
-0.017736120681005153
-0.0030198850881697488
-0.05593997863490802
-0.004085486459189333
-0.06527396575465742
-0.004365328469134879
-0.013864476095977503
-0.0030217245384520966
-0.016338993006290756
-0.04540709568538303
-0.010651937294713787
-0.023188873695570055
-0.006176504658492743
-0.002042022001089802
-0.05926327125104508
-0.004112574466717726
-0.017885517068454142
-0.0011071669197604372
-0.04766469271077666
-0.0012785973613231366
-0.060136947387999934
-0.014278637597074888
-0.001547773503117678
-0.001339930107811301
-0.026550573115499024
-0.006891589997439683
-0.049752309313238416
-0.009445480494090632
-0.03370198200287146
-0.03645730590403227
-0.000298175538584044
-0.027956682818584714
-0.0003044247075429596
-0.009162660287236736
-0.020595753905156396
-0.006141016377952588
-0.0031046129378804904
-0.0016674033841088363
-0.05931637099178862
-0.005177294878224313
-0.04323789964271718
-0.0036264805855259308
-0.04163132849148933
-0.0037532961870290872
-0.060584730280473474
-0.004339985904933149
-0.02611829191322669
-0.003668509235931011
-0.022672586451427317
-0.016619928601344165
-0.026753803151964843
-0.05773979374323097
-0.011191531638087962
-0.046848102526072424
-0.03340442199998084
-0.010454481854974069
-0.02143650537214425
-0.0004902717272800306
-0.03919203113995843
-0.0005136046665981713
-0.04939518375794248
-0.014934167396852369
-0.0004933921240740578
-0.0004806766099473498
-0.020733241917678592
-0.039459397591880684
-0.010025842170168787
-0.016274265973964187
-0.004921304943499703
-0.0011481823312063859
-0.0497031760265944
-0.0016771705954192432
-0.05245551156574918
-0.005334529617826711
-0.0012477700323585523
-0.0009213716092206144
-0.007633517313799705
-0.06397000136003564
-0.004132106327003765
-0.012054308150927614
-0.019319377866163275
-0.014776630072856347
-0.004333398203924516
-0.05965831929629617
-0.00717475600128392
-0.03227405567110991
-0.005183000161362405
-0.048220132535515256
-0.0061305318990260375
-0.006397154635321381
-0.0007355449413746935
-0.044921954031962794
-0.0009565055339258154
-0.05517983822653046
-0.016365738380264474
-0.020767518659201553
-0.014095787459026994
-0.007836228909764247
-0.018055736874061798
-0.03631116474074342
-0.01409352156302509
-0.027773487630575057
-0.01933225045910465
-0.0018617142921352457
-0.0008180043676430073
-0.04622003489807053
-0.0019328947815409204
-0.008248986498413869
-0.0034096663563606255
-0.06319145426670912
-0.007644122059660395
-0.02452700500885646
-0.002626053126990235
-0.051954659064405835
-0.003146499306052926
-0.060182847789439844
-0.0022195063446088033
-0.025067025402532143
-0.002010275664386494
-0.006663197783450359
-0.026060904607590068
-0.005384168604080548
-0.008764755837016499
-0.04137087219688404
-0.009679125929396435
-0.049022122443819954
-0.0013002729198682817
-0.003431718481377711
-0.0008340313773891517
-0.030153600824181406
-0.04676245404701743
-0.017735479065465912
-3.0577163788489914e-05
-0.02374696125618391
-2.7991343843047578e-05
-0.029737825074500842
-0.002087956768890095
-0.0006526325937617205
-0.04320554872659228
-0.0012333636260847504
-0.0095853196881044
-0.00042024705346201834
-0.03815860522039413
-0.0004620085332398849
-0.0429753667124337
-0.006011840959115873
-0.000430477507865631
-0.0003993741341364566
-0.036702426501265595
-0.0018935999150349286
-0.043953099722031416
-0.0020123784193344274
-0.06454160771583417
-0.0032035465342646965
-0.016294588180749702
-0.002557578896634665
-0.03604610587214757
-0.022911607372203612
-0.013288010966241944
-0.01973942472679186
-0.009853496199463067
-0.04904651613132819
-0.013086652433277493
-0.029738498335085
-0.007219706766009002
-0.01185579605860308
-0.01694963921885817
-0.0001429672698490802
-0.03030373565776117
-0.00014843755675442055
-0.038538063962639174
-0.011080085592354552
-0.0001776865498161579
-0.00018160098192517205
-0.041330218722973155
-0.01223164083647884
-0.009104092741524655
-0.025628378976225837
-0.053149357651931683
-0.010633069944232229
-0.002672505419074783
-0.05964101405793526
-0.004294366370473063
-0.04883562564011854
-0.004983032200553387
-0.03595587252042357
-0.004799333555373707
-0.056651950267326154
-0.02276091608443562
-0.005092794801872231
-0.05428906349497752
-0.006990039644235973
-0.0441474009791671
-0.004577263818424378
-0.0005777333836369329
-0.0004934602254384622
-0.040128192721092526
-0.0006988206094446824
-0.0342599429202572
-0.0007066047786132756
-0.007561308901971487
-0.004712501938940393
-0.016091622735729262
-0.038552347126191606
-0.05086015626641681
-0.002600247260944325
-0.03593414510337867
-0.002549705282567052
-0.009200666070515577
-0.02941992528551254
-0.007661481844604979
-0.003221975063435167
-0.06269359736202411
-0.0020385554870776166
-0.008251670224573106
-0.06328692042866553
-0.03939003501177495
-0.0626840187100391
-0.023270032738419825
-0.03231666721368556
-0.005202838188374146
-0.020935558031205725
-0.00393179411760637
-0.015752883856534807
-0.010732513674683149
-0.012244415930734621
-0.0009011951628047542
-0.0005145004376970745
-0.03985126367145361
-0.0016555891454059514
-0.05695324697144176
-0.023021823282480373
-0.001267223961306819
-0.0011918835355136438
-0.004506221715150065
-0.0020030511266909425
-0.06063407914072177
-0.004935421894510242
-0.01070616347955824
-0.006086769723559124
-0.016583461270733985
-0.019605610027402253
-0.024572592691149635
-0.014665723486243298
-0.0018838041624442436
-0.05409002388205983
-0.0024240527922066535
-0.0032375814776848325
-0.00024743802371629477
-0.02870839250572866
-0.0002502469944428504
-0.0015733793402504567
-0.0002877720614040193
-0.03325226274175931
-0.0004845014232098709
-0.013557384050320353
-0.048397041079934464
-0.014660491428332834
-0.019037358844306723
-0.025003442277665423
-0.052399166808823436
-0.033445598014869134
-0.0011411594351302496
-0.04212619110985688
-0.0011988900819286557
-0.041388319084919474
-0.005570897872438721
-0.041344113363179724
-0.005832038053052176
-0.04672596081642255
-0.0005483232009671836
-0.024939663237160594
-0.0005433646092608312
-0.025503870915689827
-0.011308614707147105
-0.05265125737961717
-0.02871128885848614
-0.017078268738928534
-0.01979783377239415
-0.060424363187808534
-0.013575380224838252
-0.01647412442981004
-0.026208682624187664
-0.01661345411531269
-0.017326303883480127
-0.007963139997540473
-0.009517699586087927
-0.01546008931431666
-0.03459683408221322
-0.041118684708134
-0.006903240383200626
-0.0001543775707201707
-0.029347970026291192
-0.00016319246722538465
-0.03605655671274297
-0.0052768433578275235
-0.00020378499916947186
-0.00020179540926662602
-0.018272070542073325
-0.020707090304901137
-0.027531634738988637
-0.0061380117077238705
-0.009302348460832457
-0.010129237178299099
-0.0034760476475698956
-0.061241786632679124
-0.006671853978843046
-0.0628404830964754
-0.010677777581419112
-0.002614018888598628
-0.0019189295912520673
-0.032669179499714505
-0.0015237222487798048
-0.0003820848045977124
-0.0002827067566872339
-0.0013821365188948507
-0.0004188394218650695
-0.031742481573647084
-0.0006758699406249675
-0.006026257777828647
-0.0029960470457771975
-0.06415148227476321
-0.008225607141941534
-0.013006249852942553
-0.0053233582923532755
-0.06509793745154363
-0.0032052115478726534
-0.011366011019548906
-0.006826045175860114
-0.04696322842138347
-0.008373396977002947
-0.05579776942211119
-0.014380536719809944
-0.000952278217984102
-0.0008725059579602813
-0.04277942433725596
-0.02069964933584835
-0.0007781774365284233
-0.04350580876061427
-0.0008428668692696505
-0.011510845726566011
-0.002105925899340324
-0.05673440980817717
-0.0029579937113799913
-0.013035519453826876
-4.0375856591526476e-05
-0.02303619285911865
-4.225582515219562e-05
-0.007296546740213041
-0.025332099676155666
-3.516046471452145e-05
-3.277219711400006e-05
-0.0550238515368078
-0.026741741188440697
-0.003814774153055486
-0.0518552260956969
-0.004675141189609541
-0.058456096538153646
-0.009305340512154278
-0.0015858558967685268
-0.00126398325688484
-0.04217268823865585
-0.009100775401834158
-0.03486552654792983
-0.008695861881115406
-0.005733598982057033
-0.010142741182743265
-0.016040250782434522
-0.011837224557803852
-0.01010651853673385
-0.00475171895128563
-0.011372896401127788
-0.004664125184999098
-0.0013607613086542723
-0.05413564352003082
-0.002423139220646352
-0.061590045344692375
-0.0213115093209465
-0.025134422193805885
-0.031085840064504645
-0.031452385986831394
-0.008616101765059279
-0.010727422262579092
-0.01586153928898636
-0.003543932811068669
-0.058489205662041154
-0.005253739715104466
-0.007053713575413336
-0.005009346903268773
-0.020734397633078723
-0.059042708192681155
-0.0192399236962907
-0.03649321383945984
-0.004215362176966911
-0.04588923455715956
-0.004668177168882182
-0.0007750348091828252
-0.0003043716157628428
-0.030659098299393218
-0.0006557840470944495
-0.032585764066576185
-0.03331347631868277
-0.045282636425556466
-0.018870137427929003
-0.014219387172026917
-0.009016778631903784
-0.02180117132491621
-0.04121793830331805
-0.04966407148651338
-0.06261953162640338
-0.0027375337137545215
-0.021865799845624843
-0.002350053097190537
-0.05620101727938214
-0.003372267784018204
-0.03191639538079837
-0.003140521391182285
-0.028837854054791515
-0.0020191259321459517
-0.04836940643935046
-0.002266437274341121
-0.012338801338920876
-0.0010547125349888178
-0.0487507731639972
-0.001321041237317605
-0.013366453052640347
-0.006742276045486764
-0.015238403673742676
-0.04681460514362095
-0.007190743442695601
-0.04187410979386418
-0.007813469084262554
-0.019036436183778208
-0.011542096867148239
-0.0017402929361254166
-0.00021370019883209339
-0.025559965682496428
-0.0002323909315946087
-0.016174942977669984
-0.015419961919491557
-0.03525871767634184
-0.00700031202000014
-0.0011265051042743644
-0.04962674909023638
-0.001491296330531651
-0.006228430126530672
-0.03204895383242531
-0.005620508023934469
-0.02795979294471362
-0.00034786979465679485
-0.034125623647140516
-0.0003586694479504573
-0.030638679445501284
-0.001674402083458174
-0.00027787861974624603
-0.0002279987209813578
-0.0005468569071559922
-0.0002690126891065657
-0.02858609564892227
-0.0006778987888418019
-0.0029830261573848492
-0.0010104501241684832
-0.049723489412069985
-0.0021046326913551805
-0.01084496249663785
5.241497023738059e-07
-0.01247775671393776
6.686834796503494e-07
-0.03774765817602118
-0.011811887037426244
-0.007527854548260688
-0.020996004536967174
-0.050068607098888884
-0.0009052983824888813
-0.02812516065576694
-0.0008853663752785897
-0.02850616317531957
-0.002198972442173116
-0.0001762406488527085
-0.00016638157087469697
-0.004674190519955572
-0.009477672572454618
-0.011859430744684162
-0.05078559105595248
-0.021079326927116813
-0.05333564390118656
-0.004860837266984228
-0.001495873898918149
-0.0010205937650442714
-0.06139766294496555
-0.06117518567929903
-0.06059116725594033
-0.020609201702690785
-0.0017560374125965216
-0.0015779431701061703
-0.05108185706149096
-0.0008170365386255921
-0.007687003658718326
-0.0007096283389222755
-0.057925975602517873
-0.04244035127977555
-0.01087768573068961
-0.0006005650398758803
-0.04206232935027575
-0.0006818769097710279
-0.021716450590629693
-0.001860156931737124
-0.0009584420552609839
-0.05013411954370359
-0.002736625784431912
-0.03006968895916431
-0.000967637432879772
-0.0004311353108922736
-0.00026825869637684937
-0.037204304077868275
-0.029651308437207518
-0.03489136497194889
-0.018371534701682936
-0.05027822044271193
-0.004153952203752595
-0.06324044292218642
-0.00231467948681563
-0.007555630675125315
-0.02983887156635395
-0.01815339849315609
-0.00914643772344568
-0.014184755503041997
-0.06063815106641363
-0.00795690671803976
-0.011019945195537234
-0.007496272155551181
-8.804311258543773e-05
-7.699864307185649e-05
-8.042764147291287e-05
-0.02716634058074669
-0.004080679129938415
-0.025678507310285904
-9.152943418673501e-05
-0.010751122394738176
-0.030018421752293793
-0.008939219808417935
-0.02617241323941502
-0.024988668936737894
-0.008456994059112872
-0.02440436612046252
-0.006329994027680543
-0.041642788693967966
-0.0244204473781561
-0.05427125898962563
-0.0019311299200921183
-0.031475964955416526
-0.0018566542884184871
-0.0511683082195582
-0.04271248470692122
-0.0025458278359944443
-0.045271229324593903
-0.0018961838296525182
-0.04165423122938444
-0.03877534373153275
-0.0026372888281370973
-0.0019210662414456884
-0.005471112472757466
-0.016466491225254946
-0.003775418229176477
-0.055362242600052035
-0.002026956479576731
-0.05472577753697262
-0.0012046407128441367
-0.004352272125964461
-0.025888331857197338
-8.299287198952693e-05
-0.023880197038010156
-8.737833436724285e-05
-0.002037667681293939
-0.00011091684468569257
-0.02178282236424554
-0.00011981863167562648
-0.010108887065886325
-0.010554186902788254
-0.037956736473151925
-0.0034137135491422374
-0.00010910566817269546
-0.023438324337084954
-0.00011699949126416538
-0.02751023199402189
-0.0025920327000702255
-0.00012797603039820728
-0.00012650491161102576
-0.02566211113458111
-0.02754252839186379
-0.0013708569820505378
-0.04618870410921257
-0.001505062366806813
-0.006498839727654565
-0.002554198613035956
-0.06216040935681562
-0.005621033421203784
-0.036765840500702904
-0.003097267325003995
-0.04576104757871502
-0.003365586846355086
-0.005570988687924406
-0.024595080083545547
-0.0046652422162219535
-0.021462567498767984
-0.06385312892464387
-0.0649561231050701
-0.010296255723445145
-0.02436207492222058
-0.007467636565013349
-0.03795894473409371
-0.017433756473707776
-0.00016961040218666513
-0.00017456017839280753
-0.019577638040525654
-0.002623649587642727
-0.054424973057230354
-0.0033326698485136785
-0.05019544087658672
-0.003598459278765895
-0.03655485910150422
-0.003514398360436144
-0.013943038040556573
-0.03797618436230764
-0.02739586005303618
-0.014134076786590797
-0.014859543999333358
-0.05545508268230138
-0.00029154128934836626
-9.206947186431395e-05
-0.018280398863432405
-0.00016971376545096744
-0.027119828750624332
-0.06407377927882772
-0.012757938410684578
-0.02168331209300681
-0.01476770137240615
-0.005464896271785476
-3.6465111397310733e-06
-0.007914527117392826
-0.018286907032198405
-0.016460929223162172
-3.252800116757093e-06
-3.968578256160906e-06
-4.484949336162507e-06
-0.03288363593147883
-0.003683501702741698
-0.003823889624627941
-0.020116520238687038
-0.015370390729583865
-0.0031468808570979646
-0.0028622714960233686
-0.05178248258326826
-0.02174430288977075
-0.007886116388331971
-0.03052644710762511
-0.006802629031778137
-0.016852590256125954
-0.05650665264675713
-0.02256500042479167
-0.0019292916449552729
-0.05102236475533525
-0.002272067995388303
-0.04531963130342684
-0.006124811404682757
-0.05078770444568154
-0.007990477289080197
-0.049546481357625904
-0.02262716587573924
-0.004071103440154392
-0.05443484796615961
-0.005373456274768844
-0.0445828721237171
-0.015159272815209686
-0.00031580027447196206
-0.00031604428326737383
-0.06279789408128592
-0.0173631583665169
-0.0022046899461634
-0.00187581572725209
-0.031018748673335407
-0.01358245936318654
-0.032504102080797896
-0.05925556508822494
-0.01093305786978985
-0.007187639682659436
-0.013104901708040085
-0.03569288755993966
-0.017173768746216938
-0.008829258035326085
-0.005594651926891731
-0.01823579516224112
-0.004770051062199646
-0.029259903591527074
-0.004225004419572927
-0.008906134840928422
-0.002719275303959233
-0.004913288196367534
-0.04582156047247226
-0.06045315879744865
-0.02654192534238011
-0.002966097457405939
-0.0026372675507522272
-0.01389595580480346
-0.0003684790657741229
-0.037517121717407814
-0.00039182428968590545
-0.04485662912853869
-0.008360443876612804
-0.00040487170291190686
-0.00038714814762129797
-0.02107962671419923
-0.011294380196255482
-0.031216062364745556
-0.008013255974457864
-0.0037251929282775716
-0.009272263689345193
-0.025619730865744497
-0.000783963258852982
-0.0002420978280536626
-0.0001675368431661983
-0.043067785414556324
-0.014488203060729643
-0.032046657033669684
-0.00018094892436788928
-0.00018811878925350422
-0.04333511162571537
-0.004336490218910132
-0.041065137930464
-0.004474216491253965
-0.02581484749368743
-0.013572797087458347
-0.0028126425022504493
-0.05874061833948716
-0.00412384149649711
-0.06374387477929148
-0.003163961882072437
-0.010154820093973622
-0.002161315203289762
-0.05542794993757896
-0.021907530080011565
-0.06445815507493918
-0.052160912097440025
-0.0007206034406267827
-0.020664257407459474
-0.0006970578840444581
-0.010075303451654812
-0.003589972817478167
-0.047863093222588096
-0.008227638912664042
-4.449505280271506e-05
-0.02328081713419811
-4.561912665109281e-05
-0.022232049619644586
-0.0038209800204229544
-3.0135164815500015e-05
-3.16381740512356e-05
-0.044357149207239384
-0.008154957786557861
-0.004679139527413844
-0.01423878724626876
-0.044869969565411276
-0.0011080295285426122
-0.035180410609313234
-0.0011129865451491058
-0.012526075209060347
-0.0008084764095418319
-0.0014043770320819853
-0.026769583670084213
-0.022935950581254944
-0.006000362184788098
-0.036319503550982866
-0.005795962976412241
-0.000509557148510409
-0.00011859590245698482
-0.021605057469375067
-0.00018688959395099291
-0.040251336548996035
-0.060464459127598034
-0.06077504472111244
-0.008581602623631666
-0.0018958250714071554
-0.056938774295893904
-0.0028793861686079586
-0.05121144792506125
-0.0010115416068399473
-0.005798594336571725
-0.0008036512094452116
-0.027352676895737196
-0.0002385411911899168
-0.031421888404059996
-0.000246251690004935
-0.024451873382912048
-0.030367936113178676
-0.0006238182880924789
-0.03840576091539769
-0.0006450062498814567
-0.05989372446734913
-0.012512044703871687
-0.0034301241471968278
-0.005677866739985439
-0.04221553723943965
-0.000491766166340294
-0.028671489286119498
-0.0004933281774687658
-0.005722702680850628
-0.0036803339029889276
-0.014191273709933845
-0.013166500240460134
-0.007614524252964256
-0.0006625735351125766
-0.04499266789527855
-0.0009272929933538175
-0.016729044076840897
-0.0005905577294959025
-6.932977290440488e-05
-6.055544936068059e-05
-0.004569060848751677
-0.008407022527260971
-0.023035155603864516
-0.008578975443328413
-0.014874011954357402
-0.03550213752766996
-0.014635556122376426
-0.01883215201142482
-0.005009898471501349
-0.0075585472121531576
-0.0006484754246498008
-9.333577416069977e-05
-0.019586884259006523
-0.00011900673578342817
-0.009854475894708994
-0.00979272299242049
-0.005196217018248883
-0.013855002395260187
-0.04318023214518826
-0.02177567659659019
-0.0003296597614500604
-0.0003319257136974362
-0.011856626736889008
-0.06436822976834251
-0.00417063021409701
-0.0017120195242506925
-0.05798538476875063
-0.003842076832722515
-0.03143255021229394
-0.027151129213878716
-0.013494048754292222
-0.057250036176272084
-0.00792264751200564
-0.0378200683660901
-0.007962505591738585
-0.005161506844166569
-0.051300436360333164
-0.006550468150223078
-0.02820946733592398
-0.015717413657594246
-0.035939407191626145
-0.00033411439002282506
-0.0001524456868891433