# vtk DataFile Version 1.0
2D Simulation C++
ASCII
DATASET UNSTRUCTURED_GRID
FIELD FieldData 1
NODES 1 2 int
2209 4256

POINTS 2209 double
0.0 0.0 0.0
0.0 1.0 0.0
1.0 1.0 0.0
1.0 0.0 0.0
0.0 0.02500000037252903 0.0
0.0 0.05000000074505806 0.0
0.0 0.07500000298023224 0.0
0.0 0.10000000149011612 0.0
0.0 0.125 0.0
0.0 0.15000000596046448 0.0
0.0 0.17499999701976776 0.0
0.0 0.20000000298023224 0.0
0.0 0.22499999403953552 0.0
0.0 0.25 0.0
0.0 0.2750000059604645 0.0
0.0 0.30000001192092896 0.0
0.0 0.32499998807907104 0.0
0.0 0.3499999940395355 0.0
0.0 0.375 0.0
0.0 0.4000000059604645 0.0
0.0 0.42500001192092896 0.0
0.0 0.44999998807907104 0.0
0.0 0.4749999940395355 0.0
0.0 0.5 0.0
0.0 0.5249999761581421 0.0
0.0 0.550000011920929 0.0
0.0 0.574999988079071 0.0
0.0 0.6000000238418579 0.0
0.0 0.625 0.0
0.0 0.6499999761581421 0.0
0.0 0.675000011920929 0.0
0.0 0.699999988079071 0.0
0.0 0.7250000238418579 0.0
0.0 0.75 0.0
0.0 0.7749999761581421 0.0
0.0 0.800000011920929 0.0
0.0 0.824999988079071 0.0
0.0 0.8500000238418579 0.0
0.0 0.875 0.0
0.0 0.8999999761581421 0.0
0.0 0.925000011920929 0.0
0.0 0.949999988079071 0.0
0.0 0.9750000238418579 0.0
0.02500000037252903 1.0 0.0
0.05000000074505806 1.0 0.0
0.07500000298023224 1.0 0.0
0.10000000149011612 1.0 0.0
0.125 1.0 0.0
0.15000000596046448 1.0 0.0
0.17499999701976776 1.0 0.0
0.20000000298023224 1.0 0.0
0.22499999403953552 1.0 0.0
0.25 1.0 0.0
0.2750000059604645 1.0 0.0
0.30000001192092896 1.0 0.0
0.32499998807907104 1.0 0.0
0.3499999940395355 1.0 0.0
0.375 1.0 0.0
0.4000000059604645 1.0 0.0
0.42500001192092896 1.0 0.0
0.44999998807907104 1.0 0.0
0.4749999940395355 1.0 0.0
0.5 1.0 0.0
0.5249999761581421 1.0 0.0
0.550000011920929 1.0 0.0
0.574999988079071 1.0 0.0
0.6000000238418579 1.0 0.0
0.625 1.0 0.0
0.6499999761581421 1.0 0.0
0.675000011920929 1.0 0.0
0.699999988079071 1.0 0.0
0.7250000238418579 1.0 0.0
0.75 1.0 0.0
0.7749999761581421 1.0 0.0
0.800000011920929 1.0 0.0
0.824999988079071 1.0 0.0
0.8500000238418579 1.0 0.0
0.875 1.0 0.0
0.8999999761581421 1.0 0.0
0.925000011920929 1.0 0.0
0.949999988079071 1.0 0.0
0.9750000238418579 1.0 0.0
1.0 0.9750000238418579 0.0
1.0 0.949999988079071 0.0
1.0 0.925000011920929 0.0
1.0 0.8999999761581421 0.0
1.0 0.875 0.0
1.0 0.8500000238418579 0.0
1.0 0.824999988079071 0.0
1.0 0.800000011920929 0.0
1.0 0.7749999761581421 0.0
1.0 0.75 0.0
1.0 0.7250000238418579 0.0
1.0 0.699999988079071 0.0
1.0 0.675000011920929 0.0
1.0 0.6499999761581421 0.0
1.0 0.625 0.0
1.0 0.6000000238418579 0.0
1.0 0.574999988079071 0.0
1.0 0.550000011920929 0.0
1.0 0.5249999761581421 0.0
1.0 0.5 0.0
1.0 0.4749999940395355 0.0
1.0 0.44999998807907104 0.0
1.0 0.42500001192092896 0.0
1.0 0.4000000059604645 0.0
1.0 0.375 0.0
1.0 0.3499999940395355 0.0
1.0 0.32499998807907104 0.0
1.0 0.30000001192092896 0.0
1.0 0.2750000059604645 0.0
1.0 0.25 0.0
1.0 0.22499999403953552 0.0
1.0 0.20000000298023224 0.0
1.0 0.17499999701976776 0.0
1.0 0.15000000596046448 0.0
1.0 0.125 0.0
1.0 0.10000000149011612 0.0
1.0 0.07500000298023224 0.0
1.0 0.05000000074505806 0.0
1.0 0.02500000037252903 0.0
0.9750000238418579 0.0 0.0
0.949999988079071 0.0 0.0
0.925000011920929 0.0 0.0
0.8999999761581421 0.0 0.0
0.875 0.0 0.0
0.8500000238418579 0.0 0.0
0.824999988079071 0.0 0.0
0.800000011920929 0.0 0.0
0.7749999761581421 0.0 0.0
0.75 0.0 0.0
0.7250000238418579 0.0 0.0
0.699999988079071 0.0 0.0
0.675000011920929 0.0 0.0
0.6499999761581421 0.0 0.0
0.625 0.0 0.0
0.6000000238418579 0.0 0.0
0.574999988079071 0.0 0.0
0.550000011920929 0.0 0.0
0.5249999761581421 0.0 0.0
0.5 0.0 0.0
0.4749999940395355 0.0 0.0
0.44999998807907104 0.0 0.0
0.42500001192092896 0.0 0.0
0.4000000059604645 0.0 0.0
0.375 0.0 0.0
0.3499999940395355 0.0 0.0
0.32499998807907104 0.0 0.0
0.30000001192092896 0.0 0.0
0.2750000059604645 0.0 0.0
0.25 0.0 0.0
0.22499999403953552 0.0 0.0
0.20000000298023224 0.0 0.0
0.17499999701976776 0.0 0.0
0.15000000596046448 0.0 0.0
0.125 0.0 0.0
0.10000000149011612 0.0 0.0
0.07500000298023224 0.0 0.0
0.05000000074505806 0.0 0.0
0.02500000037252903 0.0 0.0
0.504440368362909 0.5018753271693306 0.0
0.7103892289923491 0.7014437708923662 0.0
0.7013830999701087 0.29390223251881514 0.0
0.29600023214914073 0.7054992554689217 0.0
0.293850386336403 0.2952439813591142 0.0
0.7745186080408148 0.5046174801234103 0.0
0.500973839522198 0.22079305614388856 0.0
0.4908285165501587 0.7770969609996033 0.0
0.22149920428103198 0.4953205123182225 0.0
0.827674911106492 0.8202349818467559 0.0
0.8187258855726144 0.17018730753777386 0.0
0.17921227620449245 0.8283036341519108 0.0
0.16967278194905375 0.17895211241504796 0.0
0.6412987086838676 0.5649100904502333 0.0
0.5628427784558828 0.3659686430317861 0.0
0.4407625880366634 0.633818784489878 0.0
0.36159774084601615 0.4269649095186095 0.0
0.8435616841435384 0.6427941459686561 0.0
0.6433704301736327 0.15485518246771068 0.0
0.34876316849645267 0.8411694582540304 0.0
0.15434907310327967 0.3543439477109089 0.0
0.6470223745864158 0.8406721896124348 0.0
0.8410693923881799 0.35694782578876516 0.0
0.15706410855602054 0.6421612084405192 0.0
0.35732474453331176 0.15599614350610053 0.0
0.6720724004175431 0.44834836871501066 0.0
0.5825165234941482 0.6752843575442354 0.0
0.44625351249645795 0.31920549460945047 0.0
0.32725201770770096 0.5547379292018698 0.0
0.8811487149626089 0.5307489385398465 0.0
0.5299979180759126 0.11226856635468743 0.0
0.4654905077746072 0.8846587647521941 0.0
0.1121473272220858 0.46766968797833247 0.0
0.8962770327739061 0.7414363462672211 0.0
0.7408038804501583 0.10145627592202282 0.0
0.2573227449996846 0.8960281047902788 0.0
0.1024869342977512 0.25762119721887367 0.0
0.7441695536290733 0.8825923194708378 0.0
0.11736661664056135 0.7430495024268614 0.0
0.8804518520997876 0.2551373224741563 0.0
0.25489880810150956 0.11793465067480625 0.0
0.7403438825895425 0.6032231263257648 0.0
0.6077509169225568 0.2506530185748184 0.0
0.3937475976153832 0.7471526807375604 0.0
0.2531776857968575 0.39371446791597214 0.0
0.5220083101905442 0.5910486610787653 0.0
0.8976682495498116 0.884454548158444 0.0
0.8833562521163658 0.09958152633129462 0.0
0.11450043928531958 0.8985615966625752 0.0
0.0994569475222437 0.11455202379467368 0.0
0.7603220026526571 0.39156306904236976 0.0
0.237577003516596 0.609150331474892 0.0
0.38993623077873174 0.23471808155817678 0.0
0.8964559889316976 0.43656924801197755 0.0
0.43555613702894397 0.1010305726533187 0.0
0.5637921855436541 0.8937105264210218 0.0
0.10172548019358318 0.5629521005684041 0.0
0.787469417146452 0.7417206209636584 0.0
0.7410258695639457 0.21079952675034577 0.0
0.25626808087526104 0.7885203252525036 0.0
0.2107317865568127 0.25609650005600687 0.0
0.7198352914720532 0.799527185473052 0.0
0.7930476839357731 0.2826905722193304 0.0
0.204915878321749 0.7168650544209304 0.0
0.2865070497188035 0.20015181855172454 0.0
0.5929462368756534 0.49389028753303227 0.0
0.4897921583345457 0.41085622529743804 0.0
0.42401254140402983 0.545284664763674 0.0
0.6310329064350886 0.7574222472878127 0.0
0.650999286292138 0.35416576554322327 0.0
0.4947859025195988 0.6912084863105089 0.0
0.3529916890099619 0.6412685105599748 0.0
0.3486482419509929 0.34635755464186013 0.0
0.9149434563738892 0.8148889810702509 0.0
0.8138434419405953 0.08264380125913626 0.0
0.18379830516748719 0.9158926801254327 0.0
0.0824841627914092 0.18382422336632162 0.0
0.8269177691469357 0.9091844079039633 0.0
0.08984823741512939 0.8274421414687426 0.0
0.9080074595921998 0.1709804762086992 0.0
0.1706679975596285 0.08969318425280572 0.0
0.6968273611738883 0.5174681888190833 0.0
0.6476883143017393 0.6477039259623292 0.0
0.5120200708457927 0.302306161331861 0.0
0.29927711074535307 0.4829994554464367 0.0
0.916724966087718 0.6068018950225788 0.0
0.6121280347615806 0.08462165890723926 0.0
0.3942664240815301 0.9190008019919662 0.0
0.08196541261030944 0.3863702971680612 0.0
0.6631632923869814 0.9176591724550694 0.0
0.08004176296973846 0.6615377110289982 0.0
0.9176952486629766 0.3371021829667637 0.0
0.3370650402915767 0.08008940784048764 0.0
0.8205056034095275 0.43612620955992293 0.0
0.5657341278726755 0.8155025557214278 0.0
0.4342193572781417 0.17607046866619408 0.0
0.17753498541871512 0.5637778286973402 0.0
0.43269032638217325 0.4569336374381851 0.0
0.8174392881128103 0.5695131865543331 0.0
0.5671103467144458 0.1802222220073741 0.0
0.42904234290881743 0.8179682552167629 0.0
0.18037351622666659 0.430598624957971 0.0
0.7702437077811322 0.6669901436140867 0.0
0.6670666404327733 0.2246607339125725 0.0
0.3300235806982561 0.7746386648035047 0.0
0.22494849292480004 0.3304247381139433 0.0
0.9279022535782802 0.6835122536142916 0.0
0.6838579257154377 0.07122761992644489 0.0
0.3115603070648751 0.9253854013001119 0.0
0.0728725090421137 0.3110183713027317 0.0
0.5600486703959846 0.7392626462686974 0.0
0.6009749259945506 0.4185478335566858 0.0
0.3741381486827029 0.49733694992732275 0.0
0.7327663143399304 0.4580869332730901 0.0
0.45476455352600653 0.26152516260205066 0.0
0.2658184382315489 0.54106240969587 0.0
0.5859585344058653 0.6131295592627001 0.0
0.41721972060475565 0.3856838365507914 0.0
0.5708918473161523 0.5409953260034505 0.0
0.5471312042545879 0.44777120652262237 0.0
0.9326629657094636 0.4959656765181206 0.0
0.49689254758296164 0.06541419294940756 0.0
0.5007122136674207 0.9305837823700183 0.0
0.06525072919617159 0.5016982140017221 0.0
0.8441274020730765 0.4978165904169699 0.0
0.49597091672919913 0.15252107554451383 0.0
0.49774601466077334 0.8415079483503621 0.0
0.1529937410656393 0.5019604761963303 0.0
0.8433799326547861 0.6970929335678191 0.0
0.6968064938101692 0.15470699893727516 0.0
0.299846665303944 0.84325042972105 0.0
0.15519292151083322 0.3008586620164601 0.0
0.7703617967030296 0.8368596850874102 0.0
0.8339646823905552 0.2275652849039537 0.0
0.16384289218069192 0.7710689159617664 0.0
0.22710702842537334 0.16368782130562684 0.0
0.760846414393534 0.32652225754999187 0.0
0.2369215601372889 0.6733289328231788 0.0
0.32522990992291495 0.23617823457774947 0.0
0.6385267923391071 0.30093384638788223 0.0
[...]
POINT_DATA 2209
SCALARS Psi double
LOOKUP_TABLE default
0.0
0.0
0.0
0.0
0.0
0.0
0.0
0.0
0.0
0.0
0.0
0.0
0.0
0.0
0.0
0.0
0.0
0.0
0.0
0.0
0.0
0.0
0.0
0.0
0.0
0.0
0.0
0.0
0.0
0.0
0.0
0.0
0.0
0.0
0.0
0.0
0.0
0.0
0.0
0.0
0.0
0.0
0.0
0.0
0.0
0.0
0.0
0.0
0.0
0.0
0.0
0.0
0.0
0.0
0.0
0.0
0.0
0.0
0.0
0.0
0.0
0.0
0.0
0.0
0.0
0.0
0.0
0.0
0.0
0.0
0.0
0.0
0.0
0.0
0.0
0.0
0.0
0.0
0.0
0.0
0.0
0.0
0.0
0.0
0.0
0.0
0.0
0.0
0.0
0.0
0.0
0.0
0.0
0.0
0.0
0.0
0.0
0.0
0.0
0.0
0.0
0.0
0.0
0.0
0.0
0.0
0.0
0.0
0.0
0.0
0.0
0.0
0.0
0.0
0.0
0.0
0.0
0.0
0.0
0.0
0.0
0.0
0.0
0.0
0.0
0.0
0.0
0.0
0.0
0.0
0.0
0.0
0.0
0.0
0.0
0.0
0.0
0.0
0.0
0.0
0.0
0.0
0.0
0.0
0.0
0.0
0.0
0.0
0.0
0.0
0.0
0.0
0.0
0.0
0.0
0.0
0.0
0.0
0.0
0.0
-0.05362128180280385
-0.08718567306131313
-0.012433379819505302
-0.05375859007818748
-0.011994562834841375
-0.03230240678082959
-0.010655621854919159
-0.08938932115978566
-0.02120950051401597
-0.06826492032389858
-0.001489340732740398
-0.03740313508778663
-0.001981211385264998
-0.06665729034294693
-0.028370944574943543
-0.07149794654709082
-0.030452449278620074
-0.038418033713122905
-0.004263119132746558
-0.06797248261818165
-0.006440915533318219
-0.09033900668359253
-0.006725360446849467
-0.019665345429108264
-0.004534252809462536
-0.037132899403260686
-0.09050605564522307
-0.02086616442661361
-0.043180061997801264
-0.01293241309708993
-0.0029367357878380515
-0.07176878052832629
-0.006391101602316095
-0.03141769520582133
-0.0010978413098529697
-0.05102528265243004
-0.0016701176927353047
-0.0740194759118804
-0.01657710382102765
-0.001547830012473216
-0.0016972249121322647
-0.06096708365116374
-0.012172850265858204
-0.07527615095834171
-0.016883280860748542
-0.07276401934432188
-0.04205753900033376
-0.00012560982835580167
-0.02769188845503062
-0.0002731064292628884
-0.017760919890780207
-0.03318657540791079
-0.010583947875963166
-0.005184678098527827
-0.0023525619697398192
-0.07311319910315046
-0.007555798144775026
-0.07543801069928216
-0.004828869910459345
-0.051529578111482024
-0.005700042015594039
-0.09153652244526359
-0.0061795690000529604
-0.03475567844861223
-0.005561536812604981
-0.05270295816141875
-0.03583011989138468
-0.055187109387554556
-0.09790144033924199
-0.02275583910280358
-0.08576857313975625
-0.05832232682323806
-0.019838918462843785
-0.02997528854956696
-0.0003238718550513715
-0.04009851459239626
-0.0005515526380380084
-0.055894740570666956
-0.01504567652122906
-0.00028548579470215205
-0.0004882810158026958
-0.04888138549816749
-0.08473166481992503
-0.01961308225359862
-0.03054822551435643
-0.010718399226628027
-0.001452888996821258
-0.055820258907130334
-0.002473677091792395
-0.062352126331980375
-0.006716686493948982
-0.0014543713049377878
-0.0011882572140481547
-0.014740770340618088
-0.09279355311789249
-0.006648341494601029
-0.01903944929119074
-0.040878670296702155
-0.0336581383364723
-0.006912606911806271
-0.08011218837585102
-0.012005757217564935
-0.06771834845647341
-0.00816973243447862
-0.06526989301506433
-0.01025003324564822
-0.013083249955597306
-0.0007862402500224467
-0.048663468128463894
-0.001299816599998145
-0.09541350828315756
-0.03648988755884383
-0.04172775260799597
-0.03128930357279212
-0.014364470968466539
-0.03188303373810072
-0.07957855616298691
-0.028746915873441133
-0.06378698666803669
-0.04353250719825813
-0.003368053231620868
-0.0010829250709919345
-0.053689371724020114
-0.002812821756516149
-0.017245282732686572
-0.005299800959703745
-0.08419499339428246
-0.01224435604325845
-0.04814578449706063
-0.0033837568961655137
-0.06075723498401205
-0.0047252196502420565
-0.0809484095449754
-0.0023816532519265253
-0.029301931066132082
-0.002683608772603711
-0.011283660658125373
-0.038464754967613146
-0.00890938738316731
-0.016488603278108412
-0.06643180040574685
-0.017784407147696017
-0.05796804325815093
-0.0017518273864799315
-0.00461341121933272
-0.0010931229780106015
-0.05763056448995239
-0.07975080807994062
-0.017524916747970607
-1.3780185877806821e-05
-0.02571749839290545
8.835836276479958e-06
-0.06401658963723188
-0.00423949039916072
-0.000829116007205476
-0.04884799354309321
-0.0017593849364570299
-0.01596089542827932
-0.00033008255571698197
-0.04004650652402318
-0.0005326008287436736
-0.04866478373966795
-0.006314501055281994
-0.00030488031145901065
-0.0004300351782196463
-0.05845800147689761
-0.0020068898267055044
-0.04863447541636266
-0.0027073176069454578
-0.08701658442013256
-0.004240916524285104
-0.021433798452299146
-0.0036528324741231482
-0.07786601091426441
-0.053956481348792246
-0.02768970019247737
-0.04626500636855997
-0.019237232129280617
-0.09403747360083155
-0.024824300424907797
-0.06882787485763008
-0.013021083663387136
-0.021236634786408227
-0.02059065210054826
-4.906116305159375e-05
-0.03083389944985548
-0.0001245508011007429
-0.04220342612182811
-0.010637545479974652
-5.790335411114312e-05
-0.00015318522704959583
-0.08397202416731803
-0.025765771024768253
-0.01705215495254561
-0.04474860669888825
-0.08340709390678426
-0.023586196302678858
-0.003876193669595492
-0.07266755129458657
-0.006818867767401561
-0.08624553599205981
-0.007463295024394391
-0.04827848619843499
-0.007653938825665708
-0.09540780469368168
-0.051143395572419925
-0.008232101897371676
-0.07359385855911081
-0.011873333618622401
-0.050622858638948096
-0.005128979892936386
-0.0005002355954314209
-0.0005709853324383757
-0.050556316959139765
-0.00046462167528927466
-0.034942868306888974
-0.00075977550097251
-0.014087374516346932
-0.0077364827974579714
-0.02511885608676966
-0.07763545991547631
-0.07685445906876413
-0.003000078887908935
-0.041932441165596454
-0.0035731809713647608
-0.01752302584117903
-0.04716889361083969
-0.01372256562426341
-0.004890528986565183
-0.08020176990416793
-0.0029178238116596687
-0.011661038445823474
-0.09615810542349305
-0.06917708083496467
-0.09476539398669136
-0.05000892519469706
-0.06597210186325182
-0.008152605939263528
-0.029632446431935765
-0.006138131628788883
-0.034209265080161026
-0.021485875951009235
-0.023457135019593837
-0.001311157852994692
-0.0006637148648192427
-0.04603543449840922
-0.0022765656854357597
-0.07070282776639741
-0.02495518631160748
-0.0010850728195644671
-0.0014311623040391406
-0.008633733486836385
-0.0028897775344706813
-0.07508494953485303
-0.0075456741847605485
-0.022225152984258794
-0.010559355094553658
-0.027637287327266346
-0.04271424470411912
-0.05604319848965821
-0.030261126315308615
-0.0023375824547308926
-0.061430091144010365
-0.00356230401821494
-0.006204067539584577
-0.00021764610430643827
-0.03096883687557696
-0.0003005073751799693
-0.00331638621757452
-0.00031336790440003755
-0.036571127027575624
-0.0006695356495840766
-0.02797023713176586
-0.09118091002235804
-0.03217109721208139
-0.04389480853440503
-0.049478357319181106
-0.09611978890444935
-0.04898714830276934
-0.001001234088408996
-0.04439435002778099
-0.0014614707275306792
-0.08002282661595884
-0.008792235518316469
-0.05701645845106788
-0.009686641811090135
-0.0545429014404513
-0.00031714786472848315
-0.025164232587560308
-0.0005492261855556176
-0.06019578980470179
-0.022169965276624622
-0.09055046853626901
-0.06404702145867952
-0.03342150986419255
-0.03801946680155663
-0.09345463872410911
-0.029028652406243114
-0.034735097391671244
-0.061345653545776514
-0.03831019514866215
-0.039962908237524394
-0.014709106409098071
-0.018281121330337134
-0.02777009648147814
-0.07769695815472921
-0.0867005321138845
-0.01012562918304145
-8.49063554865767e-05
-0.03079074574757214
-0.00015999662508901457
-0.03998405768854101
-0.005206819270029258
-9.654339996800452e-05
-0.0001913704709075707
-0.03734687486962882
-0.048009955576558475
-0.05030521819229794
-0.010582680625453426
-0.016277309484845588
-0.022200056180472313
-0.005389653067151188
-0.08478122780850582
-0.01084507915833
-0.08032584231841733
-0.014125990942855162
-0.0034497562021115077
-0.002672656086919781
-0.03719740548240082
-0.0018964918618149323
-0.00039771977618129425
-0.00034590684252643403
-0.00290012314763357
-0.0005026057988358786
-0.03515177958072044
-0.0009679931380345355
-0.011458414775707892
-0.004564904386443411
-0.0855399074395171
-0.012728896645201725
-0.025787029401531887
-0.009166070449881238
-0.09011810622762828
-0.004918328481278672
-0.01703621585818123
-0.011891896777787975
-0.06987384203426003
-0.01482346113060952
-0.0658850771064289
-0.015533893764461543
-0.0007684259604730741
-0.0010137551678771793
-0.07972097117349626
-0.03216821009690693
-0.0006470443844633327
-0.04530269700688306
-0.0010036432826378476
-0.025133648061036552
-0.002824072286091728
-0.06619263470315452
-0.004517818112729156
-0.014787819992223755
9.438749416362507e-07
-0.023645568376477605
-2.5752479618918904e-05
-0.006784927166029492
-0.02759546686863328
-2.0591066282781916e-05
5.296899193771471e-06
-0.07919897408655731
-0.05538596539635417
-0.005532012459375675
-0.06507663473552312
-0.007470638608903006
-0.07120948374933604
-0.011375154825801228
-0.0017568056274555835
-0.0016374381973595115
-0.08676544051921031
-0.017267514518766448
-0.056319715945191896
-0.015833524866769255
-0.009776482518458703
-0.017530707772268124
-0.036954104021727864
-0.024176890730451678
-0.02132804276726341
-0.007852895934627074
-0.018699045218770742
-0.009933035928368786
-0.001839285392613004
-0.06270563337076385
-0.003655534327903002
-0.07896801059133093
-0.044357512387949466
-0.058980212898693526
-0.07114052120320061
-0.06909646168155656
-0.0162285446878442
-0.019817829903094986
-0.03564182838491096
-0.0053339259295760305
-0.074751479134542
-0.008545552287054881
-0.01245719488864416
-0.008266559896451567
-0.03146950868161153
-0.09755920172831592
-0.04390147055993527
-0.06999359208072128
-0.0060836472839593024
-0.058685632123543344
-0.0074298316148807535
-0.0013846888534089666
-0.00038177898852337393
-0.03485777446628017
-0.0009300080004319259
-0.07267515313484163
-0.07052837472742553
-0.07468161086279665
-0.03484106702876981
-0.031367655626804866
-0.017023044284752053
-0.039292500426854116
-0.08558107802340278
-0.0848736766089069
-0.08513443056372128
-0.0032639787872059192
-0.02689418189356917
-0.0032571199445925116
-0.08619031297009867
-0.004288456840069556
-0.03947964251852
-0.004581707129985619
-0.05063907794008283
-0.0022881520303187166
-0.054170694930060374
-0.0031768778256284005
-0.02353890326257724
-0.0011088132144598706
-0.05275798256257909
-0.0018021232595337362
-0.029534490611280065
-0.011973583343898924
-0.026327416792009777
-0.09248024638485007
-0.012589809868758704
-0.06262031109917489
-0.013752535730916638
-0.04428430556261717
-0.023250258714693203
-0.0036073170334642037
-0.00020981670065583002
-0.027894264048702527
-0.0003056372420075336
-0.03331314977814518
-0.03370546988206288
-0.06520374937669185
-0.014948367718964921
-0.0013534722444993438
-0.05502228896383968
-0.002142287253103834
-0.010204083953737592
-0.04590937210843463
-0.009340978270479259
-0.03471043776255708
-0.00017782966865759328
-0.03432039656637536
-0.00034253615485366115
-0.034554676066738774
-0.0019150606225634594
-0.00024205742678764687
-0.00026674862625344925
-0.0008654620703296342
-0.00033412616466461573
-0.032668270087131544
-0.0009597641576953945
-0.005873266460732913
-0.0013485174109835424
-0.05745253555672843
-0.003085248860149319
-0.011026085663040381
2.6997740345716757e-06
-0.013606989884949065
4.359868283963621e-06
-0.07831050124779618
-0.02481544559435178
-0.013607210156467202
-0.03586303259239626
-0.06159027306072939
-0.0006619937530970037
-0.029145191148023847
-0.0009935604131094918
-0.03200589151763398
-0.0022787742060064163
-0.00010838700025788017
-0.00017465485373366463
-0.007682231441480085
-0.01582376746170094
-0.026286899712239964
-0.09394097411092667
-0.04717447140135136
-0.06369355254763458
-0.006413665431830316
-0.001912770860947442
-0.0013487690182952005
-0.09036182314691527
-0.09732606013694631
-0.07729470144782384
-0.023632443566628834
-0.0017464087803139802
-0.002021860839625091
-0.05944667263902199
-0.0007181590587691742
-0.008582544873654412
-0.0008371351251601892
-0.08423307461839549
-0.08273191948791979
-0.018936690614734224
-0.0005256494069471482
-0.04437742718267591
-0.0008385454749031063
-0.04962920945822797
-0.0030573817928870864
-0.001287009588544561
-0.05893993444476778
-0.003929864687672752
-0.0344837747110119
-0.0013087612826890031
-0.0005447173787330085
-0.0003373905640882419
-0.0793571256427337
-0.05930219999522908
-0.07765443424598291
-0.040490987194986526
-0.08026032699814395
-0.007078069379598194
-0.08159566854741204
-0.003393904211462116
-0.01118505241838799
-0.06793922033115482
-0.040768858578403136
-0.017483619003766233
-0.026415854760742787
-0.09639836902329892
-0.014679090794645073
-0.020077435055887907
-0.009895514694310584
-3.227510267865212e-05
-1.753099355278905e-05
-6.540978090096117e-05
-0.029909251787617313
-0.0038104984399275317
-0.026896159967397273
-7.979767964332278e-05
-0.021617445910367607
-0.04997411127720932
-0.016523892113618106
-0.057206772424440465
-0.057905475185914136
-0.01578295763373903
-0.03831748478684431
-0.010925122883767022
-0.07402074342113375
-0.04993540265086963
-0.07475104825449046
-0.0019479441123261716
-0.03525520525078394
-0.0024253754315460754
-0.09142977176363883
-0.06903852845391033
-0.002967730141704168
-0.06688652011637458
-0.001938610193025652
-0.04813404311969404
-0.04300043330217284
-0.003726973214704598
-0.0025315917066754483
-0.008966139063137566
-0.024062898345044607
-0.00589377797009137
-0.08721949622574916
-0.0030366860800096897
-0.06583237838803715
-0.0016396556356177941
-0.00607123771447647
-0.028742381961575192
-6.5314244406256545e-06
-0.023711502498851386
-5.801326350365763e-05
-0.003581058959656255
-8.378192492452501e-05
-0.023607572505808635
-0.0001390728782274112
-0.01991680056749712
-0.019848101345939548
-0.0643531987532995
-0.00548135916296718
-6.555517166928727e-05
-0.024913210635146548
-0.0001202867530077639
-0.03049727984742646
-0.0025657566370788517
-6.029610981887237e-05
-0.00012190846886628334
-0.0605743905073339
-0.044606721369434936
-0.0013537079593934278
-0.04958866808586418
-0.0019496687210915564
-0.013296386604032281
-0.0037922095184571435
-0.07859423885109189
-0.008816707147482247
-0.06576228131117881
-0.0039836993180379305
-0.054744373952468006
-0.005019520493696586
-0.008816764460274691
-0.03490412357689889
-0.00748774533649146
-0.050677926266500944
-0.08974114921208286
-0.08930201696683404
-0.02061177886863993
-0.04021669774331726
-0.01340986689670777
-0.041631436513945665
-0.0168294705333209
-4.554277700335225e-05
-0.0001391914038713278
-0.04055876191761643
-0.0034847864175757905
-0.06413248996490507
-0.005082478113847002
-0.08215866882185896
-0.004722791648417913
-0.045445591796935
-0.0052564788643956915
-0.02919683530233191
-0.07854786740109208
-0.05775459901413712
-0.030073696501199045
-0.028816066176347035
-0.09160719677250938
-0.0005008637524517319
-0.00011073836792232696
-0.020427244883140537
-0.0002469884225436154
-0.05175272276213467
-0.08801094601643701
-0.025785227557733777
-0.04718017296950508
-0.029776036904858062
-0.005178696143241748
3.497379370842525e-07
-0.008871293516713084
-0.019713668226529084
-0.017099687929662002
5.169522991291249e-06
6.581070565299221e-06
9.174961494585629e-07
-0.06412915508071115
-0.005023607399247409
-0.0054967143209236026
-0.026554258724986058
-0.02103828986420347
-0.004651468909769495
-0.004221077670502716
-0.09607804901259064
-0.05090884252492853
-0.014162673031235327
-0.04682067489411323
-0.011825109048907996
-0.03818030618788724
-0.09346861480169294
-0.04223470809228428
-0.002246325359130919
-0.05716374611232118
-0.003220083557816185
-0.0889794955825923
-0.010389356965811548
-0.07303468901846193
-0.013946682323197013
-0.09317721829683635
-0.0493917105311078
-0.006126197843762989
-0.06971859907663101
-0.00876588097378069
-0.049575057810337164
-0.014894017632903128
-0.00014125381892849656
-0.00029364820570202706
-0.08113636460346285
-0.020983107326176482
-0.0024752390270701744
-0.002505340185991938
-0.07158862152651664
-0.02935610022312623
-0.059802846391865366
-0.09420432057600431
-0.021971136391892746
-0.01299317207337205
-0.02330717302737318
-0.0717005412203538
-0.03979210756579924
-0.01710633890679783
-0.009488153680083088
-0.02922124874322936
-0.007035880005184246
-0.03951316508785862
-0.00659316817540298
-0.01947226536974223
-0.0040245068142218884
-0.0078098459898936585
-0.0718387818159044
-0.08581231945163102
-0.03249457514036155
-0.003590937971909573
-0.0037189166139476853
-0.02062672024819701
-0.00024418197604615937
-0.03872997887845775
-0.0004172518791484464
-0.05041194639663798
-0.008473057069472928
-0.0002465199001719117
-0.0003996062400309537
-0.04970118183883488
-0.02270231724873654
-0.06780951255479158
-0.016264967021144883
-0.0058853877134603366
-0.014815894742424437
-0.028961689828564084
-0.0009923995440343594
-0.0002456858958962276
-0.00020476255462717916
-0.08899002200485943
-0.018615564770939345
-0.03279606316540505
-7.925913720028098e-05
-0.00016888215973098967
-0.07843140849888627
-0.006226690131637944
-0.05298456107650807
-0.0070588415908859285
-0.05794487258013614
-0.030045652568791815
-0.0040245426815550475
-0.07147840075053989
-0.006518326530478629
-0.08269059367635087
-0.004548043210851573
-0.013992497050506906
-0.003085765692665975
-0.09657100757877364
-0.04294520452132245
-0.09427730422042685
-0.06110311711659265
-0.000483630548361346
-0.021295532934579683
-0.0007510312022495392
-0.01934330730846657
-0.007660578083703255
-0.05415074784380795
-0.009845048076248517
-5.515619622445887e-06
-0.02429473185196332
-3.305481194255056e-05
-0.02423729462140719
-0.003595235442626133
2.534501559619961e-06
-2.1036506459300608e-05
-0.08664012886482256
-0.015805094518232282
-0.007679562203109047
-0.022662006024291557
-0.05941222513690091
-0.0008993217085975281
-0.036905211618271615
-0.001308993733650141
-0.026389791538693537
-0.0010367434955042259
-0.002035095553767063
-0.060314865598179564
-0.05362789414545432
-0.00968063871754445
-0.05131006613306626
-0.009653149695075892
-0.0009914826234075696
-0.00013455869132319602
-0.02381316025038651
-0.0002700625456972819
-0.08314354167846556
-0.07425417854745538
-0.07764117479624434
-0.018812366402058436
-0.0025705636137296622
-0.06633973111008941
-0.004388184308820504
-0.06018302100868631
-0.0010586397103542013
-0.006930510996413491
-0.0009992318115843062
-0.0325003054108199
-9.554485973792418e-05
-0.03142332741688814
-0.00021649016916351488
-0.04428678905231878
-0.04062340736182648
-0.0004244675245443571
-0.039223393980012164
-0.0006971191198451071
-0.09679199366265341
-0.02811994411343593
-0.005237909124534541
-0.009256697384817193
-0.049860561031704505
-0.00026986992796733167
-0.028799986285692334
-0.0004894468770497893
-0.009750182001097256
-0.0057274404471314155
-0.021186467984874145
-0.029737055300135658
-0.01487337678231143
-0.0006600372300134025
-0.04833972176582476
-0.0012213980242399235
-0.01866265568261319
-0.0006610218046544661
-3.9853989596382425e-05
-6.6493362671721e-05
-0.0074171715101462345
-0.014060816796932787
-0.05191781400163359
-0.01614596304938912
-0.027279727576574878
-0.0790961738868515
-0.03113388468741765
-0.043163233786195396
-0.008188885743690845
-0.01283225531339288
-0.0012775027763911495
-9.46448390363919e-05
-0.021490496435723247
-0.00016153763206506346
-0.018685654899743335
-0.02008306742703812
-0.008731416443910286
-0.02272939089094957
-0.048534894991604544
-0.0215385290543618
-0.00014294720686483097
-0.0003026770992832476
-0.024443495033500524
-0.09400282587856527
-0.008219079297064225
-0.00243521528989983
-0.06991897194693447
-0.005846944244032775
-0.06967962884427478
-0.05929795473643597
-0.026521326570991845
-0.07745932377561211
-0.014306663534294783
-0.05826646201882313
-0.014158401050403592
-0.008281335495576666
-0.06964035232580623
-0.01105816039646315
-0.05567104621865015
-0.03004299126133288
-0.06411415685789991
-0.0005287313298469872
-0.00019089065699446652
-0.024665550839992112
-0.0005058188014349781
-0.012381837497845145
-0.004228876589518638
-0.08335601650144235
-0.010819551604799877
-0.07009826136230453
-0.05199578042008223