# vtk DataFile Version 1.0
2D Simulation C++
ASCII
DATASET UNSTRUCTURED_GRID
FIELD FieldData 1
NODES 1 2 int
2209 4256

POINTS 2209 double
0.0 0.0 0.0
0.0 1.0 0.0
1.0 1.0 0.0
1.0 0.0 0.0
0.0 0.02500000037252903 0.0
0.0 0.05000000074505806 0.0
0.0 0.07500000298023224 0.0
0.0 0.10000000149011612 0.0
0.0 0.125 0.0
0.0 0.15000000596046448 0.0
0.0 0.17499999701976776 0.0
0.0 0.20000000298023224 0.0
0.0 0.22499999403953552 0.0
0.0 0.25 0.0
0.0 0.2750000059604645 0.0
0.0 0.30000001192092896 0.0
0.0 0.32499998807907104 0.0
0.0 0.3499999940395355 0.0
0.0 0.375 0.0
0.0 0.4000000059604645 0.0
0.0 0.42500001192092896 0.0
0.0 0.44999998807907104 0.0
0.0 0.4749999940395355 0.0
0.0 0.5 0.0
0.0 0.5249999761581421 0.0
0.0 0.550000011920929 0.0
0.0 0.574999988079071 0.0
0.0 0.6000000238418579 0.0
0.0 0.625 0.0
0.0 0.6499999761581421 0.0
0.0 0.675000011920929 0.0
0.0 0.699999988079071 0.0
0.0 0.7250000238418579 0.0
0.0 0.75 0.0
0.0 0.7749999761581421 0.0
0.0 0.800000011920929 0.0
0.0 0.824999988079071 0.0
0.0 0.8500000238418579 0.0
0.0 0.875 0.0
0.0 0.8999999761581421 0.0
0.0 0.925000011920929 0.0
0.0 0.949999988079071 0.0
0.0 0.9750000238418579 0.0
0.02500000037252903 1.0 0.0
0.05000000074505806 1.0 0.0
0.07500000298023224 1.0 0.0
0.10000000149011612 1.0 0.0
0.125 1.0 0.0
0.15000000596046448 1.0 0.0
0.17499999701976776 1.0 0.0
0.20000000298023224 1.0 0.0
0.22499999403953552 1.0 0.0
0.25 1.0 0.0
0.2750000059604645 1.0 0.0
0.30000001192092896 1.0 0.0
0.32499998807907104 1.0 0.0
0.3499999940395355 1.0 0.0
0.375 1.0 0.0
0.4000000059604645 1.0 0.0
0.42500001192092896 1.0 0.0
0.44999998807907104 1.0 0.0
0.4749999940395355 1.0 0.0
0.5 1.0 0.0
0.5249999761581421 1.0 0.0
0.550000011920929 1.0 0.0
0.574999988079071 1.0 0.0
0.6000000238418579 1.0 0.0
0.625 1.0 0.0
0.6499999761581421 1.0 0.0
0.675000011920929 1.0 0.0
0.699999988079071 1.0 0.0
0.7250000238418579 1.0 0.0
0.75 1.0 0.0
0.7749999761581421 1.0 0.0
0.800000011920929 1.0 0.0
0.824999988079071 1.0 0.0
0.8500000238418579 1.0 0.0
0.875 1.0 0.0
0.8999999761581421 1.0 0.0
0.925000011920929 1.0 0.0
0.949999988079071 1.0 0.0
0.9750000238418579 1.0 0.0
1.0 0.9750000238418579 0.0
1.0 0.949999988079071 0.0
1.0 0.925000011920929 0.0
1.0 0.8999999761581421 0.0
1.0 0.875 0.0
1.0 0.8500000238418579 0.0
1.0 0.824999988079071 0.0
1.0 0.800000011920929 0.0
1.0 0.7749999761581421 0.0
1.0 0.75 0.0
1.0 0.7250000238418579 0.0
1.0 0.699999988079071 0.0
1.0 0.675000011920929 0.0
1.0 0.6499999761581421 0.0
1.0 0.625 0.0
1.0 0.6000000238418579 0.0
1.0 0.574999988079071 0.0
1.0 0.550000011920929 0.0
1.0 0.5249999761581421 0.0
1.0 0.5 0.0
1.0 0.4749999940395355 0.0
1.0 0.44999998807907104 0.0
1.0 0.42500001192092896 0.0
1.0 0.4000000059604645 0.0
1.0 0.375 0.0
1.0 0.3499999940395355 0.0
1.0 0.32499998807907104 0.0
1.0 0.30000001192092896 0.0
1.0 0.2750000059604645 0.0
1.0 0.25 0.0
1.0 0.22499999403953552 0.0
1.0 0.20000000298023224 0.0
1.0 0.17499999701976776 0.0
1.0 0.15000000596046448 0.0
1.0 0.125 0.0
1.0 0.10000000149011612 0.0
1.0 0.07500000298023224 0.0
1.0 0.05000000074505806 0.0
1.0 0.02500000037252903 0.0
0.9750000238418579 0.0 0.0
0.949999988079071 0.0 0.0
0.925000011920929 0.0 0.0
0.8999999761581421 0.0 0.0
0.875 0.0 0.0
0.8500000238418579 0.0 0.0
0.824999988079071 0.0 0.0
0.800000011920929 0.0 0.0
0.7749999761581421 0.0 0.0
0.75 0.0 0.0
0.7250000238418579 0.0 0.0
0.699999988079071 0.0 0.0
0.675000011920929 0.0 0.0
0.6499999761581421 0.0 0.0
0.625 0.0 0.0
0.6000000238418579 0.0 0.0
0.574999988079071 0.0 0.0
0.550000011920929 0.0 0.0
0.5249999761581421 0.0 0.0
0.5 0.0 0.0
0.4749999940395355 0.0 0.0
0.44999998807907104 0.0 0.0
0.42500001192092896 0.0 0.0
0.4000000059604645 0.0 0.0
0.375 0.0 0.0
0.3499999940395355 0.0 0.0
0.32499998807907104 0.0 0.0
0.30000001192092896 0.0 0.0
0.2750000059604645 0.0 0.0
0.25 0.0 0.0
0.22499999403953552 0.0 0.0
0.20000000298023224 0.0 0.0
0.17499999701976776 0.0 0.0
0.15000000596046448 0.0 0.0
0.125 0.0 0.0
0.10000000149011612 0.0 0.0
0.07500000298023224 0.0 0.0
0.05000000074505806 0.0 0.0
0.02500000037252903 0.0 0.0
0.5043901958742303 0.5011871908933776 0.0
0.7100622070066293 0.7004944906400272 0.0
0.7011513695304873 0.293223594350273 0.0
0.2959130498388256 0.7047705257382393 0.0
0.2934260762885492 0.2944309657715745 0.0
0.7741836284009617 0.5044745166453519 0.0
0.5007211473151207 0.2206952854181414 0.0
0.4907808823198473 0.7762683338421565 0.0
0.2212653460196907 0.4946796420330779 0.0
0.8274578707077256 0.8195143299729992 0.0
0.818216746494637 0.16989149445108298 0.0
0.17909697667516994 0.828137021919778 0.0
0.16950971498609102 0.1785970284069121 0.0
0.6416558048786909 0.5643423925401272 0.0
0.5626603788752329 0.36500246315590645 0.0
0.44076311557311987 0.6329832350373052 0.0
0.3608641918816695 0.42644511411044844 0.0
0.8433415309731978 0.6425552036384377 0.0
0.6428671744534062 0.1547468477692672 0.0
0.3491295690045776 0.8402380163500617 0.0
0.15381970035434478 0.35354677941910195 0.0
0.6469807326789405 0.839677290975358 0.0
0.8409180549947689 0.35660880103629494 0.0
0.1571432667008604 0.6414158464085312 0.0
0.3574247175373421 0.15571659374036256 0.0
0.6721091627729643 0.44732474645097514 0.0
0.5824304230660661 0.674774003823407 0.0
0.4457244988472375 0.3188826980823187 0.0
0.3271893842579335 0.5548338000524894 0.0
0.8807924651049993 0.5303615562904885 0.0
0.5298006470229243 0.11171196023686246 0.0
0.4655401881695797 0.8840319403572913 0.0
0.11184761195420129 0.46783623618283 0.0
0.8963088957584799 0.7408593065239908 0.0
0.7404555155249279 0.10185714396221877 0.0
0.25723047432559204 0.8956677690012113 0.0
0.10199808101056637 0.2568621934868416 0.0
0.7436879958736932 0.881648559459393 0.0
0.11749797668367326 0.7431984135095866 0.0
0.8801231352859734 0.254937270457285 0.0
0.25458822636807626 0.11686267843403675 0.0
0.7401210995020467 0.6031224792778772 0.0
0.6076423488205237 0.2500607057502279 0.0
0.3935012530122344 0.746612031866873 0.0
0.2530307918062638 0.3930890371903787 0.0
0.5223927782255686 0.5905978039796471 0.0
0.8973161819023451 0.8843547300234181 0.0
0.8831128320441709 0.09946114507977921 0.0
0.11451201494773221 0.8980446809048626 0.0
0.09947273979769915 0.1143438863105335 0.0
0.7604099957428496 0.39155695777092914 0.0
0.2375320298879506 0.6086911934688022 0.0
0.3898943269255232 0.23426102505407667 0.0
0.8961217789285795 0.43614340147431746 0.0
0.4351383094835912 0.10111972774500295 0.0
0.5636209095046941 0.892620631674703 0.0
0.10112785681164711 0.5624243418152879 0.0
0.786612236034358 0.741139088719566 0.0
0.7407304571578597 0.21024288442357017 0.0
0.2560516289911265 0.7878354438973192 0.0
0.2100372190744728 0.2557718730838901 0.0
0.7194595316430749 0.7986695556108026 0.0
0.792741696990476 0.2824333175544086 0.0
0.2048162400947301 0.716239885237739 0.0
0.28611717794830255 0.19977735293108848 0.0
0.5926085790822556 0.4933142557760887 0.0
0.4899486075899653 0.4105924974217766 0.0
0.4242476266775523 0.5445125189071667 0.0
0.6312541306618248 0.7565224364562959 0.0
0.6505752628695198 0.3535121672481049 0.0
0.4945863829673043 0.6908271427233782 0.0
0.35289186854216786 0.6413861804985977 0.0
0.34795502351292396 0.3458552863391018 0.0
0.9146006376497229 0.81443045615928 0.0
0.8138836519520529 0.08264401867198215 0.0
0.18378795491908148 0.9152799323323719 0.0
0.08261860425614932 0.18337869417755856 0.0
0.8267223944197435 0.908757036608522 0.0
0.08953471115381863 0.8268586528104253 0.0
0.9077045699942294 0.1705280110345401 0.0
0.17077970222056452 0.0895455882634489 0.0
0.6970207487750786 0.5170495441543985 0.0
0.6480125116631179 0.6469808795270365 0.0
0.5115484786550393 0.3021930476111231 0.0
0.2989402516147672 0.4823781787839217 0.0
0.9160069150441082 0.6066204144452388 0.0
0.611791280620942 0.08420943753309516 0.0
0.3941324070610539 0.919008143590235 0.0
0.08185823283114119 0.3857153621845597 0.0
0.6625849040550333 0.9171473537473843 0.0
0.08021242546274791 0.6610601143080932 0.0
0.9174663033977483 0.33702012215043514 0.0
0.3368746671581063 0.07913778122913986 0.0
0.8200661797158304 0.4361080413009935 0.0
0.5654683664355298 0.8150283717294664 0.0
0.43414245740818197 0.17547675549383643 0.0
0.1771715412405003 0.5629260150563625 0.0
0.43217800504671483 0.4564801241950077 0.0
0.8171054414827356 0.568902560897302 0.0
0.5671424951843647 0.1800184010135609 0.0
0.42895961678660943 0.8167601205014694 0.0
0.1796172184723463 0.429686503367237 0.0
0.7698455327517707 0.6665136205621214 0.0
0.666612896177167 0.224249460828105 0.0
0.3300451097084171 0.7737342807160075 0.0
0.22488532731005467 0.3296685069133958 0.0
0.9268933221762277 0.6827545703095106 0.0
0.6833323894810217 0.07057301080640839 0.0
0.3108849873417454 0.9253192428684486 0.0
0.0725611292542285 0.30996468109455744 0.0
0.5599365815811109 0.7389962869228133 0.0
0.600775114563548 0.41816499171056304 0.0
0.37376235976815114 0.49703346772532303 0.0
0.7326382390042758 0.45745900258395794 0.0
0.4546248497306072 0.2612746385155411 0.0
0.26608644489106614 0.5409238546192411 0.0
0.5860034911967008 0.6124760459138814 0.0
0.4169336216742622 0.3851411960198653 0.0
0.5708655408594547 0.5405252661903979 0.0
0.5471058303732101 0.44743558792780785 0.0
0.9325151505014727 0.49544458317785284 0.0
0.49668878933399513 0.06467686722951446 0.0
0.500660851550916 0.9304169122891908 0.0
0.06504430377906148 0.5011682277391905 0.0
0.8433817411836372 0.49739317603429145 0.0
0.4955639218150554 0.15252725440347079 0.0
0.4975449432806928 0.8404286507401618 0.0
0.15283257230294964 0.5013523947604618 0.0
0.8428338244643437 0.696748661637069 0.0
0.6965238713911545 0.15440801744215804 0.0
0.2996724216477799 0.842601942653011 0.0
0.1549503258906235 0.3000111703061673 0.0
0.7698952993819409 0.8361208544045919 0.0
0.8333077530907396 0.22756151599693134 0.0
0.1636814377663017 0.7707977837007003 0.0
0.22666743721756086 0.16301481003385224 0.0
0.760474673253513 0.3265408478943487 0.0
0.2365975891404455 0.6730232629455416 0.0
0.3248169292542485 0.2358118254949889 0.0
0.6380796690615578 0.3001512462034916 0.0
0.36241447099481067 0.7002463820300565 0.0
[...]
POINT_DATA 2209
SCALARS Psi double
LOOKUP_TABLE default
0.0
0.0
0.0
0.0
0.0
0.0
0.0
0.0
0.0
0.0
0.0
0.0
0.0
0.0
0.0
0.0
0.0
0.0
0.0
0.0
0.0
0.0
0.0
0.0
0.0
0.0
0.0
0.0
0.0
0.0
0.0
0.0
0.0
0.0
0.0
0.0
0.0
0.0
0.0
0.0
0.0
0.0
0.0
0.0
0.0
0.0
0.0
0.0
0.0
0.0
0.0
0.0
0.0
0.0
0.0
0.0
0.0
0.0
0.0
0.0
0.0
0.0
0.0
0.0
0.0
0.0
0.0
0.0
0.0
0.0
0.0
0.0
0.0
0.0
0.0
0.0
0.0
0.0
0.0
0.0
0.0
0.0
0.0
0.0
0.0
0.0
0.0
0.0
0.0
0.0
0.0
0.0
0.0
0.0
0.0
0.0
0.0
0.0
0.0
0.0
0.0
0.0
0.0
0.0
0.0
0.0
0.0
0.0
0.0
0.0
0.0
0.0
0.0
0.0
0.0
0.0
0.0
0.0
0.0
0.0
0.0
0.0
0.0
0.0
0.0
0.0
0.0
0.0
0.0
0.0
0.0
0.0
0.0
0.0
0.0
0.0
0.0
0.0
0.0
0.0
0.0
0.0
0.0
0.0
0.0
0.0
0.0
0.0
0.0
0.0
0.0
0.0
0.0
0.0
0.0
0.0
0.0
0.0
0.0
0.0
-0.06068675102341143
-0.09100926023947287
-0.014083476073285256
-0.05752856277217271
-0.013977419159505776
-0.035849642253239486
-0.01234017253301148
-0.09323754035446839
-0.024289101700502795
-0.06909853889426058
-0.0015490691206689413
-0.0377965044707414
-0.0022453764189699515
-0.07296828483072512
-0.03267878185973117
-0.07817812228270199
-0.03525283239886251
-0.04087587487405457
-0.004784710260094543
-0.06966200383684706
-0.0074615781951238
-0.0920445708262127
-0.007452917921780888
-0.021392510716390357
-0.005192935886410024
-0.041774958266402554
-0.09637451605425583
-0.024330190406812346
-0.04879325885066213
-0.014211027883909717
-0.0033016164952265965
-0.07297950158182272
-0.007349601918306568
-0.03230012939099286
-0.0011609306919023886
-0.05124393550272724
-0.001915991367206305
-0.07475124026421116
-0.017236169132970557
-0.0016307639806060485
-0.0019029713461915696
-0.06563364738478215
-0.013947882377574834
-0.07939086567880373
-0.01961532833142461
-0.08005564578950052
-0.04210419146298619
-9.356999826812128e-05
-0.027519509485011563
-0.00029318128441513353
-0.02009318024575547
-0.03675223845581696
-0.012312545667751845
-0.005757393799250239
-0.002673666964657373
-0.07420008908418183
-0.008414660375053016
-0.07790135978345687
-0.00534069123718198
-0.05334116609849436
-0.006599865153801496
-0.09345998462298294
-0.006854578184780627
-0.036816443961013086
-0.006413967760259318
-0.059227378948474574
-0.04134586710760473
-0.061976771872253325
-0.10149333338367458
-0.02600853597045298
-0.09167481249205861
-0.0640026162654444
-0.023073073999310214
-0.03043548149620198
-0.00030305764970608474
-0.03991280808535439
-0.0006144169114031142
-0.055907452576881865
-0.015036970112731031
-0.00025799660529924505
-0.0005325318379819003
-0.05406548069649402
-0.09026571873634459
-0.022813337902634526
-0.03503670172345503
-0.011666892384010159
-0.001598232179521087
-0.056157277075032215
-0.0028787339756111163
-0.06271160926632306
-0.007225270756845763
-0.0015836765448782129
-0.0013138694240678016
-0.016538619441690768
-0.09545739962201888
-0.007668260192035168
-0.021295068814251333
-0.0469392198904847
-0.036528177782902405
-0.007890522181636389
-0.08277208716324648
-0.013851229827066979
-0.07126928569483557
-0.00923291211828317
-0.06818285233751735
-0.011964334308988758
-0.013971792585352891
-0.0008282674573437238
-0.04874427515247956
-0.0014856988520192864
-0.09999505485364946
-0.04165343950768343
-0.0476510097567232
-0.035007556922891335
-0.016737252610318634
-0.03615801464766252
-0.08637413930968643
-0.03335082855916251
-0.07090781709269052
-0.049722387890036135
-0.0037030804990411835
-0.001211271315333525
-0.05398871634718655
-0.0031879255415899217
-0.01904042039841767
-0.006080507955210278
-0.08635962398264523
-0.014010315129887456
-0.05017905540215183
-0.003710130270868288
-0.06202959572519517
-0.005476249607832936
-0.08200467238945906
-0.0025587577289057357
-0.030210490123085614
-0.003037100433618913
-0.012732896030892168
-0.04161742253653088
-0.010340998163317747
-0.01884926467544741
-0.07122045809096102
-0.02069231737909978
-0.058447939710342775
-0.0019397271894186345
-0.005000027880424763
-0.0012258061777785803
-0.06402363059569735
-0.0852205544332111
-0.017225333218774834
-1.0838657606882043e-05
-0.02581440730747301
1.6439796391874566e-05
-0.07135507007693477
-0.004668326532301137
-0.0009246278353158763
-0.04920685551681637
-0.0020464617217197437
-0.016445735980134435
-0.0003331254407351386
-0.03986811922099184
-0.0005980842076562378
-0.04864624517963772
-0.0064033915005475275
-0.0002981958621468055
-0.000468208571748724
-0.059741204046418264
-0.0021360404508343985
-0.04932378419724971
-0.0031070916159642355
-0.08830918772942054
-0.004719947350874996
-0.02280962547721856
-0.00419314399900173
-0.08260757742649247
-0.06003711938725783
-0.032080039452855064
-0.050596121205280536
-0.02215846384649387
-0.09859276785433596
-0.02878818009819546
-0.07435174598629127
-0.015061467862515414
-0.024446539383200926
-0.020893958054238534
-3.112016684715735e-05
-0.030579804058773547
-0.00012782785425436528
-0.04196400236891957
-0.010459694469844369
-3.5840570052567564e-05
-0.00016063678968422347
-0.0905530278302928
-0.029199737552426254
-0.01994839855658723
-0.04980970661626642
-0.08782673465917774
-0.025727697476148843
-0.004348373236076773
-0.07416541041986717
-0.007920148366477798
-0.08908562832589043
-0.008350126155943332
-0.05092971357935999
-0.008918053968948588
-0.09838152186371711
-0.05469476253508545
-0.009362484535303467
-0.07650977108368087
-0.013799501346889946
-0.0507037487496791
-0.005339825211295301
-0.0005184739271624371
-0.0006272255811237701
-0.05105552075260189
-0.00043839994102108323
-0.034915341451606
-0.0008492872688758017
-0.015838024579463376
-0.008962102008077994
-0.027886743793137922
-0.0845651909131258
-0.07842965338451077
-0.003213753367491998
-0.04302318230850625
-0.004084641742545154
-0.019957957050717182
-0.051500461657062666
-0.01597701464564708
-0.005472726619021336
-0.08136039856581581
-0.003312144694483895
-0.012843216478889297
-0.0988826821224748
-0.07498933471083655
-0.09696734972458403
-0.05683717693546716
-0.07304177569069113
-0.009158692348511875
-0.03202561641402014
-0.007073331473472639
-0.03939557380476372
-0.024692785749534294
-0.027297189551923708
-0.0014726622797077912
-0.0007243092270405241
-0.04666353799092534
-0.002492951623548307
-0.07127770562788206
-0.0252546650017579
-0.0011017263021558471
-0.0016069773201930046
-0.009496652414669841
-0.0032973993707096742
-0.07629895164258768
-0.008532186381530412
-0.024955573944555196
-0.01225880099182671
-0.03114156514070158
-0.049068011377016336
-0.06304062556468973
-0.03198579695510324
-0.002559052584681856
-0.06221617133793074
-0.004159381982334316
-0.006703224911852264
-0.0002175521418127188
-0.03105708423086138
-0.000335181614132119
-0.0037104210168361906
-0.0003287584797248867
-0.03646157831008959
-0.0007457678712620593
-0.032449088694922266
-0.09691810374582539
-0.036635595683862356
-0.0495844971607368
-0.05579945863563846
-0.10082007139183098
-0.04998325246115984
-0.0010187788875712764
-0.0445767564287457
-0.0016572148424992127
-0.08334091699686887
-0.009924601697676323
-0.060031938954332426
-0.011286648618626804
-0.054707299865398316
-0.0002857185269100066
-0.025113395779816274
-0.0006054643705479752
-0.0658306359651412
-0.025808877040393325
-0.0955910101477117
-0.07134801230646096
-0.03853216186481695
-0.043275473336506484
-0.09704984611399789
-0.03319512008807296
-0.04022856527289849
-0.06797945333117508
-0.04243434479545607
-0.04463017593062662
-0.017097949929600554
-0.021297078397317926
-0.03166421696172895
-0.08401782297580156
-0.09282271880838505
-0.010699040565879175
-7.278480928505248e-05
-0.03092905462134969
-0.00017344196036505257
-0.040130739276637
-0.005099928993795583
-8.310021733741915e-05
-0.00020485131150880276
-0.043012318526656004
-0.05186661314799189
-0.05603534081703058
-0.012162154727173347
-0.01887600692543477
-0.0243575063577046
-0.006161044522603096
-0.08766340195866947
-0.012514428381044976
-0.0813947017023227
-0.01523658114684417
-0.003805781441120271
-0.0030310820369618715
-0.03773565553640728
-0.001960928209944538
-0.000446010004168146
-0.0003686873583242659
-0.003249192151422102
-0.000537064198385139
-0.03528595843466945
-0.001073012888764371
-0.01277983877026088
-0.005234090059261141
-0.08750350698809942
-0.014417834161404443
-0.02993434440596069
-0.010252270908885735
-0.09214584311332218
-0.005653818748442956
-0.01892887702112868
-0.013568879649816457
-0.07378173124756729
-0.017217484502490638
-0.06634818734357346
-0.015916726451125313
-0.0007799270806980064
-0.0011255631526967385
-0.08603592818347072
-0.032988875449415984
-0.0006475759358543534
-0.0453177295322113
-0.0011282886323196514
-0.027006560154271084
-0.0031360732421892986
-0.06724840580036318
-0.005247035210470821
-0.015182009466482918
8.916955501721277e-06
-0.023353831661340606
-2.322977435873225e-05
-0.006620870841075242
-0.027754369440718192
-1.7510033458554266e-05
1.3069210462269052e-05
-0.08278434178706794
-0.05822361636077278
-0.0061996513359050456
-0.06717830068178272
-0.008678361272111123
-0.07178935547392634
-0.01208257698145047
-0.001905015646675705
-0.0018366157822118428
-0.09157886899030951
-0.019666121061777064
-0.06106036240158624
-0.01848760051341752
-0.011250623621599391
-0.020207478785413038
-0.04056899078889782
-0.028029790057244167
-0.023695189764450297
-0.009083856762955771
-0.02131236527314079
-0.01085306397862204
-0.0020502338692550124
-0.06327684371249657
-0.004220699108940088
-0.08090773445574917
-0.05062044641158684
-0.0640008198153922
-0.07796256070713455
-0.07336031551720147
-0.018581309982713283
-0.023035765493890123
-0.038210699196521265
-0.006008855464587779
-0.07681750524020807
-0.00986555692345765
-0.014040532002474251
-0.009599010130342128
-0.034448413159708965
-0.1012737983050635
-0.049888319302688444
-0.07306133566042064
-0.006798288455863292
-0.060988921254810174
-0.008628268825712692
-0.0015670626607032498
-0.00041256105008620887
-0.03526997742319436
-0.0010437566406861442
-0.0797746564486048
-0.07782475865794855
-0.07977924414583422
-0.03969389431954333
-0.0353268028521509
-0.019816399532506954
-0.04441143290729195
-0.09199048757687739
-0.09020669236560183
-0.0862655168687523
-0.0035788492209886734
-0.028106555746481743
-0.003713913059105802
-0.08808928661946248
-0.004717562587456873
-0.04103331021929959
-0.005255984664397698
-0.05218543430020306
-0.00247043574839726
-0.054930368341750926
-0.003656174759154865
-0.024568223749606592
-0.0011752584073029936
-0.053039457132920576
-0.002060620257142863
-0.03304794534250565
-0.013907582336209645
-0.029905245932921643
-0.09784572542005024
-0.014335798846298417
-0.06654032985770933
-0.01603148553321009
-0.049686817375554165
-0.027045623558852046
-0.0039780915200587205
-0.00021339548405548077
-0.028069207570576103
-0.000334471398920795
-0.038578350057371195
-0.038665480430460024
-0.07143384502909826
-0.01606620545397836
-0.0014594254002605947
-0.05529055040458733
-0.0024655447463747104
-0.011479495584696138
-0.049224685946392455
-0.01086403821189926
-0.035037826670119745
-0.00014973998328952776
-0.03412085035416607
-0.000378729801836897
-0.035267258552689584
-0.0019675964478113807
-0.0002644833703966579
-0.00027774841210553635
-0.0009980301096057312
-0.00036338601071927485
-0.03307931319454859
-0.0010360438244402875
-0.006457528773892278
-0.001508072294322588
-0.05808477952498143
-0.0035689056769057856
-0.01083982460907728
3.406514369834517e-06
-0.014013140505449783
5.130932937860181e-06
-0.0823360814657927
-0.028041227336193266
-0.01589347215922161
-0.04020651737388781
-0.062032562161290244
-0.0006472967998052043
-0.029234034132753328
-0.0011160959694676799
-0.03254693399364242
-0.002268967725169437
-0.00010898896331772253
-0.00017955127282215933
-0.00883273062631819
-0.018154101670881332
-0.02899206738346129
-0.09777975805057977
-0.05383264894229456
-0.06422006108178298
-0.006960993974784909
-0.002115936843892148
-0.0014938714731926768
-0.0935826827452798
-0.10020927056865878
-0.07804849614574266
-0.024352610192243513
-0.001848149321094613
-0.0022715525971461242
-0.05972312506134634
-0.0007421348701877036
-0.008960940985391422
-0.0009165232118912863
-0.08771178180999505
-0.08919372383112865
-0.01955613272663132
-0.0005428063300127066
-0.044370915892343994
-0.0009517460508251882
-0.056239519997433256
-0.00339655892404942
-0.0014318087893243467
-0.05967564288702519
-0.004403826197924457
-0.03496614862846893
-0.0013704169401028154
-0.0006359876280694622
-0.00036478605456289205
-0.08634526741661591
-0.0661661129185431
-0.08294956925356271
-0.0465570677292747
-0.08496392820552695
-0.007888441047513184
-0.08296109583223522
-0.0038698278455450014
-0.012404905016887149
-0.07296008217698965
-0.046594394623095246
-0.020233008962978603
-0.030394630450428128
-0.0999194940451038
-0.016909766873041458
-0.02328508378342281
-0.010197801502022945
-2.242577266956531e-05
-7.519407389913004e-06
-6.564819302613404e-05
-0.030108914452850594
-0.0037176988005542325
-0.026878221136974797
-8.075891963259293e-05
-0.024691397536751005
-0.054814636041148036
-0.019271574266795852
-0.06434838451045412
-0.06470881038556774
-0.01788870781994572
-0.04205852112223533
-0.012716683101034673
-0.0800155753338873
-0.05650473427448178
-0.07584000496006708
-0.002057505979488701
-0.03599539081524865
-0.002751081952637983
-0.09467341349289665
-0.07058873602180256
-0.0031927764199967267
-0.06808331049582143
-0.0020412394470892153
-0.04925445303987218
-0.0436057301016923
-0.0042738174079653465
-0.0028882871872940668
-0.010050711511678414
-0.026365768613047822
-0.006802193113048957
-0.09152010933833697
-0.0033841335611690514
-0.06662317317427055
-0.001829370974524007
-0.006721823717111791
-0.02864997577449771
9.010108103919842e-06
-0.02336160723203684
-5.709452401096839e-05
-0.003944321913772603
-7.98762334317683e-05
-0.02398963793231141
-0.00015184292123862368
-0.02279813598239202
-0.023109383877451463
-0.06973951862908317
-0.005972960775963365
-5.8467642502608626e-05
-0.02539949615227463
-0.00012831093998751236
-0.030928860926886223
-0.0024979614134482426
-5.484314329239945e-05
-0.00012674655740394717
-0.06660728873741512
-0.0458163474591797
-0.0014131705427681248
-0.04995320746620721
-0.002233286029387758
-0.014607846981903221
-0.004319406035036018
-0.08020138211645741
-0.010083079935811543
-0.06797316566189468
-0.004350703135406859
-0.05621729881752774
-0.0058191395277280575
-0.0099106399578962
-0.03749086722293241
-0.00869275027373102
-0.05569726656011387
-0.09127785676565629
-0.09074278429318816
-0.023369640495270395
-0.04460704130171818
-0.015637117975187468
-0.04162442504990121
-0.0167520329946517
-2.1038392880296005e-05
-0.00014501568884796144
-0.042682255159672576
-0.0038559729246088136
-0.06548431612560428
-0.005905713482231492
-0.0843396050317372
-0.00519252137262601
-0.04719515020575958
-0.0060319039803975625
-0.03380065350189696
-0.08557133530230397
-0.06495394008298487
-0.03473358644489458
-0.03336890542549263
-0.09415762330876253
-0.0006159448603384446
-0.00011625048211235992
-0.020826930866820238
-0.0002649986578593867
-0.057879731717075056
-0.0902936866172191
-0.03000229401083118
-0.05381684372572437
-0.034496258909964855
-0.004999174458808286
1.510888165115685e-06
-0.009091232359512895
-0.02007524383227349
-0.016970314789285613
7.013142344370328e-06
8.65991775370866e-06
2.4762827706423693e-06
-0.07075038703171248
-0.005591194160977205
-0.006114833157438701
-0.028257394416377188
-0.022713419509258523
-0.005339302646158176
-0.004841462619794325
-0.10053626544566299
-0.057077011645017904
-0.016128705787570377
-0.0506246487537299
-0.013783019922731406
-0.04320282088429147
-0.09783648216867023
-0.0437474576755664
-0.002429792679735879
-0.057960818322975616
-0.0037410252621329124
-0.09504443489080151
-0.011814194231190074
-0.07658572266320961
-0.016211313555122772
-0.0985573636275443
-0.05235523527519657
-0.006931805637357752
-0.07198534677019475
-0.010222572125917784
-0.04951003683550465
-0.014759545793011239
-0.00011435046706209374
-0.0003159013312356713
-0.08196944225709742
-0.021999329421477868
-0.0026698552696135954
-0.0028260445698109747
-0.07766423786977578
-0.033398141995982386
-0.06595755666979884
-0.09660884616591806
-0.02530845084630929
-0.01502442053633144
-0.02671457393428089
-0.07869652921709848
-0.04393836637243847
-0.019299359421665486
-0.011022996526930267
-0.03246010261260852
-0.007840941010036259
-0.04191333646362874
-0.00761900678093306
-0.02134287339030752
-0.004550136729438044
-0.009042778338404514
-0.07636809136952884
-0.08724761246614336
-0.033777841232775274
-0.003913482059290496
-0.00425886179867382
-0.02125136262915822
-0.00023240835789787082
-0.038571665123535756
-0.0004647389124241335
-0.05044790691864335
-0.008524525582167247
-0.00023196854312969447
-0.0004351777457041174
-0.055130793562842256
-0.026398344134214262
-0.0751768630563951
-0.018055504571408695
-0.006765734464712528
-0.01678853719518062
-0.029310255826483323
-0.0010251781251358213
-0.0002853575524248231
-0.000215185444179861
-0.09436706564448306
-0.019082679016028736
-0.03251734747675045
-6.218304818787468e-05
-0.0001818359274952636
-0.08115293136250663
-0.006898458759930071
-0.055239412002312735
-0.008203927416231008
-0.06509480813161267
-0.03233981878998767
-0.004488443477701373
-0.07297857042474673
-0.007555930007102434
-0.0839576531095427
-0.005047094979397399
-0.015262303708627715
-0.003513305597544305
-0.10001551360080384
-0.04882876879640562
-0.09643754302029912
-0.06137136967330009
-0.00045842600924270334
-0.02127656774738879
-0.0008335679326993649
-0.022598029469191292
-0.008399387873045406
-0.05444707913795182
-0.010096166534679363
1.5768654607340465e-06
-0.02431175144059435
-3.149465844552961e-05
-0.024730088355108513
-0.0034215706456801986
8.897392282043405e-06
-1.834652618341496e-05
-0.09287381674809837
-0.017674725201416403
-0.008895390670494205
-0.025304011624899463
-0.05993218243474174
-0.0009018654788459587
-0.037112309880787515
-0.0014778264334761317
-0.030065949502163264
-0.0011350982534138535
-0.0023464120412680966
-0.06431301621198077
-0.05820933889892132
-0.01092205065050468
-0.05444354860054683
-0.011251545449289215
-0.0011542874533064537
-0.00013688177054370953
-0.024091931721124206
-0.00027912276205820265
-0.0876314787975208
-0.07580233912961257
-0.07975550532713026
-0.020380107254322464
-0.0028354519823650583
-0.06726141701305757
-0.005131543679759359
-0.06066821299351741
-0.0011351227144416219
-0.007313861393046712
-0.001107762565526703
-0.032517592414899835
-6.975841648639719e-05
-0.031261334319741256
-0.00023285345973662425
-0.04968944851791901
-0.0411065456689626
-0.00040133712285955997
-0.03910169082756822
-0.0007790573696277727
-0.09955687617849814
-0.030605248358501848
-0.005926951933184633
-0.0107029066279012
-0.04996797807117735
-0.00023570207644244457
-0.028788079708952724
-0.0005404449763976636
-0.010902315425769596
-0.0066054416491150006
-0.02335881106109615
-0.03255270803420092
-0.015513627643462355
-0.0006846682427339331
-0.048368350864881525
-0.0014037382804402334
-0.019193263995590834
-0.0006246714962285284
-4.374000813052776e-05
-6.592087125685158e-05
-0.008504973027620063
-0.01624680437170307
-0.058836046846773744
-0.01868957181365362
-0.031208120342132602
-0.08495393279610525
-0.03602334336435147
-0.04651953892156274
-0.009338308830898109
-0.014908932312251945
-0.0015041649470001347
-9.164879002537971e-05
-0.02167188732668873
-0.00016801072315188195
-0.02185329582313673
-0.022552057038380702
-0.010112299484797766
-0.025579249772582375
-0.0486478932603205
-0.02141827735468585
-0.00011145939303693522
-0.00032472178172895255
-0.028018724152804424
-0.09650585549008374
-0.009015320788219096
-0.0027463270090506307
-0.07084485455536887
-0.00672658868424818
-0.07701521846444581
-0.06294719465442122
-0.030779642930077077
-0.08027463952546443
-0.016284992579358216
-0.06253205075214646
-0.016530925489529728
-0.009382099144324706
-0.07260411909265167
-0.012838851578827842
-0.062286980765787224
-0.034622235791232046
-0.07011017297761005
-0.0006294915773026159
-0.0001997882906512427
-0.025164042356629782
-0.0005551429731462009
-0.013743043906039485
-0.0048481962059251475
-0.08523749830232943
-0.012303437642124162
-0.07533918549829172
-0.05889611647622563
-0.029373551350991785