# vtk DataFile Version 1.0
2D Simulation C++
ASCII
DATASET UNSTRUCTURED_GRID
FIELD FieldData 1
NODES 1 2 int
2209 4256

POINTS 2209 double
0.0 0.0 0.0
0.0 1.0 0.0
1.0 1.0 0.0
1.0 0.0 0.0
0.0 0.02500000037252903 0.0
0.0 0.05000000074505806 0.0
0.0 0.07500000298023224 0.0
0.0 0.10000000149011612 0.0
0.0 0.125 0.0
0.0 0.15000000596046448 0.0
0.0 0.17499999701976776 0.0
0.0 0.20000000298023224 0.0
0.0 0.22499999403953552 0.0
0.0 0.25 0.0
0.0 0.2750000059604645 0.0
0.0 0.30000001192092896 0.0
0.0 0.32499998807907104 0.0
0.0 0.3499999940395355 0.0
0.0 0.375 0.0
0.0 0.4000000059604645 0.0
0.0 0.42500001192092896 0.0
0.0 0.44999998807907104 0.0
0.0 0.4749999940395355 0.0
0.0 0.5 0.0
0.0 0.5249999761581421 0.0
0.0 0.550000011920929 0.0
0.0 0.574999988079071 0.0
0.0 0.6000000238418579 0.0
0.0 0.625 0.0
0.0 0.6499999761581421 0.0
0.0 0.675000011920929 0.0
0.0 0.699999988079071 0.0
0.0 0.7250000238418579 0.0
0.0 0.75 0.0
0.0 0.7749999761581421 0.0
0.0 0.800000011920929 0.0
0.0 0.824999988079071 0.0
0.0 0.8500000238418579 0.0
0.0 0.875 0.0
0.0 0.8999999761581421 0.0
0.0 0.925000011920929 0.0
0.0 0.949999988079071 0.0
0.0 0.9750000238418579 0.0
0.02500000037252903 1.0 0.0
0.05000000074505806 1.0 0.0
0.07500000298023224 1.0 0.0
0.10000000149011612 1.0 0.0
0.125 1.0 0.0
0.15000000596046448 1.0 0.0
0.17499999701976776 1.0 0.0
0.20000000298023224 1.0 0.0
0.22499999403953552 1.0 0.0
0.25 1.0 0.0
0.2750000059604645 1.0 0.0
0.30000001192092896 1.0 0.0
0.32499998807907104 1.0 0.0
0.3499999940395355 1.0 0.0
0.375 1.0 0.0
0.4000000059604645 1.0 0.0
0.42500001192092896 1.0 0.0
0.44999998807907104 1.0 0.0
0.4749999940395355 1.0 0.0
0.5 1.0 0.0
0.5249999761581421 1.0 0.0
0.550000011920929 1.0 0.0
0.574999988079071 1.0 0.0
0.6000000238418579 1.0 0.0
0.625 1.0 0.0
0.6499999761581421 1.0 0.0
0.675000011920929 1.0 0.0
0.699999988079071 1.0 0.0
0.7250000238418579 1.0 0.0
0.75 1.0 0.0
0.7749999761581421 1.0 0.0
0.800000011920929 1.0 0.0
0.824999988079071 1.0 0.0
0.8500000238418579 1.0 0.0
0.875 1.0 0.0
0.8999999761581421 1.0 0.0
0.925000011920929 1.0 0.0
0.949999988079071 1.0 0.0
0.9750000238418579 1.0 0.0
1.0 0.9750000238418579 0.0
1.0 0.949999988079071 0.0
1.0 0.925000011920929 0.0
1.0 0.8999999761581421 0.0
1.0 0.875 0.0
1.0 0.8500000238418579 0.0
1.0 0.824999988079071 0.0
1.0 0.800000011920929 0.0
1.0 0.7749999761581421 0.0
1.0 0.75 0.0
1.0 0.7250000238418579 0.0
1.0 0.699999988079071 0.0
1.0 0.675000011920929 0.0
1.0 0.6499999761581421 0.0
1.0 0.625 0.0
1.0 0.6000000238418579 0.0
1.0 0.574999988079071 0.0
1.0 0.550000011920929 0.0
1.0 0.5249999761581421 0.0
1.0 0.5 0.0
1.0 0.4749999940395355 0.0
1.0 0.44999998807907104 0.0
1.0 0.42500001192092896 0.0
1.0 0.4000000059604645 0.0
1.0 0.375 0.0
1.0 0.3499999940395355 0.0
1.0 0.32499998807907104 0.0
1.0 0.30000001192092896 0.0
1.0 0.2750000059604645 0.0
1.0 0.25 0.0
1.0 0.22499999403953552 0.0
1.0 0.20000000298023224 0.0
1.0 0.17499999701976776 0.0
1.0 0.15000000596046448 0.0
1.0 0.125 0.0
1.0 0.10000000149011612 0.0
1.0 0.07500000298023224 0.0
1.0 0.05000000074505806 0.0
1.0 0.02500000037252903 0.0
0.9750000238418579 0.0 0.0
0.949999988079071 0.0 0.0
0.925000011920929 0.0 0.0
0.8999999761581421 0.0 0.0
0.875 0.0 0.0
0.8500000238418579 0.0 0.0
0.824999988079071 0.0 0.0
0.800000011920929 0.0 0.0
0.7749999761581421 0.0 0.0
0.75 0.0 0.0
0.7250000238418579 0.0 0.0
0.699999988079071 0.0 0.0
0.675000011920929 0.0 0.0
0.6499999761581421 0.0 0.0
0.625 0.0 0.0
0.6000000238418579 0.0 0.0
0.574999988079071 0.0 0.0
0.550000011920929 0.0 0.0
0.5249999761581421 0.0 0.0
0.5 0.0 0.0
0.4749999940395355 0.0 0.0
0.44999998807907104 0.0 0.0
0.42500001192092896 0.0 0.0
0.4000000059604645 0.0 0.0
0.375 0.0 0.0
0.3499999940395355 0.0 0.0
0.32499998807907104 0.0 0.0
0.30000001192092896 0.0 0.0
0.2750000059604645 0.0 0.0
0.25 0.0 0.0
0.22499999403953552 0.0 0.0
0.20000000298023224 0.0 0.0
0.17499999701976776 0.0 0.0
0.15000000596046448 0.0 0.0
0.125 0.0 0.0
0.10000000149011612 0.0 0.0
0.07500000298023224 0.0 0.0
0.05000000074505806 0.0 0.0
0.02500000037252903 0.0 0.0
0.5068895995644528 0.504781052243136 0.0
0.7126204701141932 0.7041549248882519 0.0
0.7041656655355283 0.2961161535222261 0.0
0.2981934726180754 0.7083314982843529 0.0
0.29606245481333415 0.29824052007238644 0.0
0.7775139114452969 0.5069180747991517 0.0
0.5033865183739435 0.22361198675294272 0.0
0.4932218386309957 0.7797042256364108 0.0
0.224063620463804 0.4984926558115559 0.0
0.8299850764915506 0.822618818260439 0.0
0.8213353993675436 0.17252461216377124 0.0
0.18170808882491826 0.8311455915408056 0.0
0.1722643603881103 0.18153323640961208 0.0
0.6441328027141475 0.5674477363207859 0.0
0.5650556037446334 0.3684265500069449 0.0
0.4429342350283716 0.6368219813844762 0.0
0.36366537430710943 0.42997326712608813 0.0
0.8461536243194099 0.6451841875814505 0.0
0.6455493363909074 0.1570247771704329 0.0
0.35170757564737853 0.8434932753181833 0.0
0.1565901601334891 0.3571403018765119 0.0
0.6497146487758974 0.8433935466760617 0.0
0.8435206248492587 0.3593817269047693 0.0
0.15926364440855456 0.6451430621447066 0.0
0.35984847448050267 0.158881654131905 0.0
0.675534622518231 0.4504748801340285 0.0
0.5848032681557241 0.6784231738135799 0.0
0.4477923251688461 0.322029605181512 0.0
0.32976237538938075 0.5580883435367854 0.0
0.8838222192606868 0.5329696397173008 0.0
0.5324092745625688 0.11457961608907065 0.0
0.46828866539822706 0.8875900198461901 0.0
0.11444130507287069 0.47053611661395506 0.0
0.898829348091688 0.7434930500916529 0.0
0.7432854026968514 0.10409954168360683 0.0
0.25997509836835114 0.8983256208198258 0.0
0.10479287965493084 0.2597675843411997 0.0
0.7463397121976888 0.8849003286012217 0.0
0.12002731279910368 0.7458829119093452 0.0
0.8830435046266009 0.25772825469195865 0.0
0.2574808956116415 0.12032151922193361 0.0
0.7429659343360605 0.6058082745458346 0.0
0.6103081746778686 0.2524037383921854 0.0
0.39631457540812054 0.7500676869965228 0.0
0.2555388607229593 0.3969399875998092 0.0
0.5247542129680378 0.5939292819445863 0.0
0.9003398465519835 0.887201130950528 0.0
0.8859630070233161 0.10202183617692533 0.0
0.11717548387034865 0.9012108009251332 0.0
0.10201557090081459 0.11719830361389846 0.0
0.7631411785834786 0.39370564891100607 0.0
0.23962894001926324 0.6124361556552793 0.0
0.3920990926200979 0.23775399282335202 0.0
0.8991090273731933 0.438680971756455 0.0
0.4380286120865212 0.10373710141619034 0.0
0.5665624926761051 0.8964231368678265 0.0
0.10426626591503224 0.5654447355640262 0.0
0.7896282104284811 0.7441661801028266 0.0
0.7437154009679547 0.2128816658756845 0.0
0.25842714039355313 0.7907227437760855 0.0
0.21289242610110343 0.25882112184332823 0.0
0.7220010561160349 0.8022406718268826 0.0
0.7958123170107364 0.28495422894461625 0.0
0.2068298425450715 0.7194678440677992 0.0
0.28896736213410107 0.20320507985426256 0.0
0.5955531533654752 0.4966097705583941 0.0
0.49213107978880394 0.41381958126802104 0.0
0.42636767885773175 0.5486475678658781 0.0
0.6334561889279474 0.7602089735493075 0.0
0.6534383320306874 0.3559560511394177 0.0
0.49705380431214957 0.6944012993971019 0.0
0.35533370078168497 0.644719181246068 0.0
0.3510027705501017 0.3495222451375593 0.0
0.9176566072889213 0.8172373366975385 0.0
0.8166911498387477 0.08525037391488367 0.0
0.18663417124737897 0.9182415296503352 0.0
0.08504912035803716 0.18642328043685422 0.0
0.8294216219022706 0.912091598884819 0.0
0.09231218873973804 0.829969319865182 0.0
0.9106372388865966 0.17342925807113393 0.0
0.17338470584756543 0.09242696803988881 0.0
0.6998105264202863 0.5198319599375135 0.0
0.650265871732058 0.6503609450396859 0.0
0.5138558455763308 0.30496953904503676 0.0
0.3011957261940587 0.48606624235356405 0.0
0.9193758118690175 0.6091600573724916 0.0
0.6145232919440936 0.08702314631830999 0.0
0.3971741216654376 0.9220694347746996 0.0
0.08462737084816666 0.3886812844738486 0.0
0.6655589476769181 0.9206729940645693 0.0
0.08259677928661345 0.6639653751506954 0.0
0.9206785444970478 0.3398487043516393 0.0
0.33969654244234226 0.08278966300918854 0.0
0.8228934795459758 0.43810416458619306 0.0
0.568176803403042 0.8183756913169667 0.0
0.4364659158914026 0.17859990416743685 0.0
0.17966484257177842 0.5668839612053611 0.0
0.43503519170961474 0.4602123181610236 0.0
0.8202006377027309 0.5716130200699874 0.0
0.5694335448490706 0.18279558827286366 0.0
0.4317401811133832 0.8203626611681828 0.0
0.182478073974007 0.433326962464613 0.0
0.7725948863133952 0.6696622931217588 0.0
0.6697131446601006 0.22714137920527966 0.0
0.33256861676920707 0.7773055926295434 0.0
0.22732984104772255 0.33338469218072436 0.0
0.9302874448166537 0.6858825260140307 0.0
0.6863017498471731 0.07376540369509954 0.0
0.3143558481370036 0.9282663078018832 0.0
0.07545286721810471 0.3133253293718836 0.0
0.5625194678342283 0.7421501072604321 0.0
0.6035996587544412 0.42119531918403225 0.0
0.3764695798250075 0.5007502876375953 0.0
0.7357221447633833 0.46039152220336393 0.0
0.45679762276131625 0.26426869179673657 0.0
0.2678850060683453 0.5445665398261157 0.0
0.5886380426644084 0.6157899263761625 0.0
0.41927279735463674 0.3887425720107286 0.0
0.5734217251819176 0.5437301983135536 0.0
0.549453318773687 0.45044380622031666 0.0
0.9354582909981713 0.4980179399973723 0.0
0.4991078854186177 0.06778079587005753 0.0
0.503479960859115 0.933638592017347 0.0
0.06788356945117446 0.5040506413178554 0.0
0.8464959804449091 0.5002199325339026 0.0
0.49822007311950556 0.15513740813067445 0.0
0.5000983783222926 0.8439622458788296 0.0
0.15558698947898322 0.504816698994026 0.0
0.8457696268611902 0.6994310660545136 0.0
0.6993904445332969 0.156994280602337 0.0
0.3023599737001883 0.8454299531921002 0.0
0.15741669794837063 0.30311728958389433 0.0
0.7726487727889821 0.8392574734065232 0.0
0.8367911803549688 0.23039387522607024 0.0
0.16623442285312645 0.7734011289727181 0.0
0.22971727328487854 0.1661153965420418 0.0
0.7633354905683746 0.3287517399848598 0.0
0.23887180237223682 0.6763904056418348 0.0
0.32744163085077865 0.23945211866775823 0.0
0.6407951919040707 0.30275525363217126 0.0
[...]
POINT_DATA 2209
SCALARS Psi double
LOOKUP_TABLE default
0.0
0.0
0.0
0.0
0.0
0.0
0.0
0.0
0.0
0.0
0.0
0.0
0.0
0.0
0.0
0.0
0.0
0.0
0.0
0.0
0.0
0.0
0.0
0.0
0.0
0.0
0.0
0.0
0.0
0.0
0.0
0.0
0.0
0.0
0.0
0.0
0.0
0.0
0.0
0.0
0.0
0.0
0.0
0.0
0.0
0.0
0.0
0.0
0.0
0.0
0.0
0.0
0.0
0.0
0.0
0.0
0.0
0.0
0.0
0.0
0.0
0.0
0.0
0.0
0.0
0.0
0.0
0.0
0.0
0.0
0.0
0.0
0.0
0.0
0.0
0.0
0.0
0.0
0.0
0.0
0.0
0.0
0.0
0.0
0.0
0.0
0.0
0.0
0.0
0.0
0.0
0.0
0.0
0.0
0.0
0.0
0.0
0.0
0.0
0.0
0.0
0.0
0.0
0.0
0.0
0.0
0.0
0.0
0.0
0.0
0.0
0.0
0.0
0.0
0.0
0.0
0.0
0.0
0.0
0.0
0.0
0.0
0.0
0.0
0.0
0.0
0.0
0.0
0.0
0.0
0.0
0.0
0.0
0.0
0.0
0.0
0.0
0.0
0.0
0.0
0.0
0.0
0.0
0.0
0.0
0.0
0.0
0.0
0.0
0.0
0.0
0.0
0.0
0.0
0.0
0.0
0.0
0.0
0.0
0.0
-0.04145776529367018
-0.076282567340668
-0.01015364514403074
-0.04810771631072083
-0.009750480116681132
-0.025027021611229924
-0.008756233644846428
-0.08099049461404773
-0.01742301742342472
-0.06450416725851517
-0.001563246132075614
-0.037090425677875724
-0.0017695940573035078
-0.052760725693773734
-0.02180551223719426
-0.059242577689314894
-0.023848932419444087
-0.032073578558912824
-0.0038210127668786985
-0.06496551607096475
-0.005345515112617885
-0.08473466536088514
-0.005535671533741068
-0.017661011247844336
-0.003897473448395406
-0.028249528493760136
-0.0768483065982728
-0.016381002633424093
-0.03515889678375219
-0.01001774850055534
-0.0025983409379232623
-0.06818159756726011
-0.005367121201200123
-0.027814444911327132
-0.0011468045513847354
-0.05005715573404375
-0.0014680957766500479
-0.07096393261289624
-0.016252233552181482
-0.0015236704630156503
-0.0015407432654896973
-0.0497721968243267
-0.009938542535986071
-0.06772150014066486
-0.01358652619308839
-0.05842367424214324
-0.0402472754720403
-0.00020107357107966535
-0.0280067563712946
-0.00027456548987789053
-0.01388054044109144
-0.02841554821508459
-0.008679062857854438
-0.004057044501553541
-0.0020815079606074
-0.06925582862438515
-0.006622434649365768
-0.06820928808675847
-0.004384094454186398
-0.049049009819712455
-0.004805185767450795
-0.08510577399638239
-0.005352724593429915
-0.032237961823565885
-0.004746328173034713
-0.04043692542616532
-0.027445760302344205
-0.04377890428731231
-0.08806117907451447
-0.017630248507350836
-0.07350072291838056
-0.04940650446316512
-0.01569032752050266
-0.027584534165593092
-0.0004081613877450535
-0.03963972703751474
-0.0005164375953179023
-0.05380607304329071
-0.01546857502320752
-0.0003760206946396169
-0.0004743954955010791
-0.037914596639414225
-0.0708746916133449
-0.015409882369560562
-0.024419495649191426
-0.008428140489058421
-0.0013681907747614551
-0.053383453852320205
-0.0021066487294590644
-0.059163752905551995
-0.006345432861159836
-0.0012777112277315822
-0.0010857684274092271
-0.011487520435809974
-0.08574001878563876
-0.0055973605673940545
-0.016235206550435834
-0.03162069352739399
-0.026804641070354848
-0.0058872888946762585
-0.07473904024581197
-0.009836557833061456
-0.05794293637930942
-0.006980996615846349
-0.06054984552947107
-0.008390937037797535
-0.010856020126565665
-0.000801627172511151
-0.04691220031093933
-0.0011290094498939895
-0.08441320831413889
-0.0277890637060486
-0.03289544589685617
-0.02396878159662835
-0.011543008418860204
-0.02620231268787399
-0.0647579247970962
-0.02229893538484708
-0.04981071855462879
-0.033193865402401206
-0.0025673607153139802
-0.000994189547383102
-0.05060125176578072
-0.00244522006450363
-0.013370979394799927
-0.004539778578621773
-0.07880010197296887
-0.0102901381499844
-0.04182773250135675
-0.003133129924891543
-0.058675584095258734
-0.003977267317949193
-0.07688084262528427
-0.0023244765751509675
-0.028452136984799325
-0.002375576454543809
-0.009187524681002488
-0.03426787737462525
-0.007392997813049016
-0.013114271911166082
-0.058307231219121444
-0.014209998203880221
-0.05473401420057919
-0.001431404718075068
-0.004196880227628973
-0.0009999289552695277
-0.047141705863983724
-0.06936757966082407
-0.01754770237362416
-1.817359070246337e-05
-0.02421824746165163
-5.604098734843053e-06
-0.050708334426052985
-0.003210303354323037
-0.0007804256754756833
-0.046179084572771194
-0.0015356919526849928
-0.014051134419233988
-0.00038632783189739266
-0.038845201907220885
-0.000489418156853828
-0.04622600508816949
-0.006498632554415616
-0.0003484823007033664
-0.0004169926541537747
-0.053629652485216936
-0.0020148614440667423
-0.047733002196015964
-0.00235712409399191
-0.08227384623000826
-0.003709770132098085
-0.019879555740082395
-0.0031959811402397812
-0.0656476692583883
-0.04161493014621881
-0.021339489012799757
-0.03639276625596735
-0.015152995195580847
-0.08202559951964954
-0.019662791444015313
-0.05555821096769068
-0.010564424412602347
-0.017158305985278538
-0.019269915781212624
-8.894684853433779e-05
-0.03007927716396643
-0.00012703230253506402
-0.040176326476941505
-0.011093300075657703
-0.00010825286503043517
-0.00015982321953403238
-0.06977694202618166
-0.019812099503352523
-0.013565200096576087
-0.03745856419438938
-0.07461283680647722
-0.018881607181175698
-0.0034225293193571736
-0.06920433760525671
-0.005651708147257348
-0.07770387187886423
-0.006430259414053527
-0.04479705669454168
-0.0063991574269628695
-0.08656870816326735
-0.0422296172569549
-0.006976112038995035
-0.06837550386194173
-0.009685986922424766
-0.04801382855088284
-0.00513750363095895
-0.0005048613402607511
-0.0005436304694186828
-0.04816358079260496
-0.0005783952927138641
-0.03510082533261274
-0.0007150068854174825
-0.011046565588825377
-0.006445666247666192
-0.02167808647267713
-0.0639735548655121
-0.07160853661181432
-0.0028657899688977226
-0.04067018771082133
-0.0030859622279226858
-0.01382501284611629
-0.04088560296054864
-0.011070604705972474
-0.003976440506018517
-0.07590174746063132
-0.0025574646630839347
-0.010418420624978919
-0.08844532450530064
-0.05900674067299998
-0.08784579756216601
-0.03889129592322339
-0.0532590693721047
-0.006759780227451072
-0.026733630676514804
-0.0051995240920858984
-0.026142767400488556
-0.016772007874328917
-0.01854705978163278
-0.0010345181188421133
-0.0006132019175409901
-0.043209680752283604
-0.0020443412325033077
-0.06787925945684796
-0.024909975712606943
-0.0011741191725540292
-0.0013126536917173368
-0.00663205410174664
-0.002549271200497294
-0.07115494907123401
-0.006437883037920279
-0.017124988203367598
-0.00864864945460447
-0.023187058158893735
-0.032822779539483635
-0.04325116109998472
-0.02557920213443574
-0.0022202523675695332
-0.05947417667307945
-0.003027476248753192
-0.005170188669462159
-0.00024145516313749896
-0.029246473444277218
-0.00027332365503862036
-0.002618000579823655
-0.0003168415959800397
-0.03428281340563466
-0.0005789965076262026
-0.021612699465243756
-0.07833794549774477
-0.024554473117954598
-0.03349326166298551
-0.03958698062389504
-0.08425973337285995
-0.04542720319708886
-0.0010945368425731665
-0.04401300333010098
-0.0013133651687033334
-0.07034645437215034
-0.0074668649225946605
-0.0524785985577425
-0.007975472489238265
-0.052523438855574554
-0.0004210144208293983
-0.025512929454699827
-0.000533112338881087
-0.047500900922663986
-0.017368284234746057
-0.0795076522388831
-0.05030362953930015
-0.026404523333743015
-0.03036519088468927
-0.08481573315593284
-0.022237061433161235
-0.026792426072137995
-0.04777944836497821
-0.029489456602485774
-0.030568921441492362
-0.011798369367291327
-0.014461753883918552
-0.022567992635624645
-0.06316131260718459
-0.07244850176034319
-0.009049499836919567
-0.00011804896456113815
-0.02933234632867289
-0.0001548594868308879
-0.037580500508815735
-0.005453457836749877
-0.0001408898981744674
-0.00019175577492568528
-0.029143386338621652
-0.038560313996667546
-0.041543323089170435
-0.008737129250823495
-0.013196847892536178
-0.017382532451306533
-0.004626829732192582
-0.07858215467540113
-0.009000134991852163
-0.0762516299977547
-0.013072851360246593
-0.002964521489551559
-0.0023641795521151606
-0.03494247658971735
-0.0017877788896689722
-0.00035751734777309283
-0.00032108135526792995
-0.0022116158127707835
-0.00048530650240307126
-0.03290557582984855
-0.0008315494002061704
-0.008900940974243989
-0.003934908104464872
-0.08018633515740813
-0.010893859195211332
-0.02014040969883808
-0.007285703670835225
-0.08426389212557023
-0.004202527500538826
-0.014872494650010601
-0.00975025726537485
-0.06300171527736176
-0.011960573365732998
-0.06337145757678414
-0.01567315524456192
-0.0008431147099969958
-0.0009453758041088581
-0.06738557302283495
-0.02916210152512753
-0.0007269642169292021
-0.04473157084250506
-0.0009053183659994685
-0.020594424439036373
-0.002587300150963983
-0.06361301288683809
-0.003787639413463331
-0.01392179466570265
-1.549527686838326e-05
-0.022801894931504245
-2.9761621143780675e-05
-0.007190362907659773
-0.02576272802175866
-2.3675988210173596e-05
-1.0119566943303059e-05
-0.0724813807535739
-0.04753281059369711
-0.004885802869239645
-0.06172432462972007
-0.0061806047209236725
-0.0679339972013501
-0.010883903468148711
-0.0016177864234815259
-0.0014870097291361003
-0.07431846577136114
-0.013648594667667087
-0.04900164308880197
-0.01270144099682882
-0.008105826004031494
-0.014310443253904319
-0.02900888372916717
-0.018737661843807783
-0.016504033689893696
-0.006568882446624038
-0.015619431208791144
-0.007729174580242348
-0.0016762922567006315
-0.059791272912727456
-0.003094863390263881
-0.07440985220147998
-0.03461585980783107
-0.04715691952551067
-0.05653194967018429
-0.05796655557363118
-0.012923058004422528
-0.015811616676448925
-0.029013174576614793
-0.004647383570311508
-0.07051716029106929
-0.007036177787785679
-0.009953188035220882
-0.00686449210345626
-0.02759620850589036
-0.08785361773352825
-0.03344417754971499
-0.06175381317991467
-0.005359372352723516
-0.05535697127633565
-0.006165997419614395
-0.0010510328721554524
-0.0003586902467273253
-0.032377496556427736
-0.0008038787847612196
-0.0579850762263034
-0.05669673976732564
-0.06535519526458014
-0.028176078000591652
-0.023980241751864848
-0.013509525630348958
-0.032293149378601116
-0.07116942313069449
-0.0741349705520939
-0.08063380050710374
-0.0030132379179678586
-0.025668904861785555
-0.00285698863366563
-0.08007215769964406
-0.003916149689595573
-0.03763210105203473
-0.003932026493883614
-0.045353578578724865
-0.002238744993962603
-0.05289298221365494
-0.002724453682434818
-0.02028947523023694
-0.0011345852353434294
-0.051427160015032475
-0.0015578949054106225
-0.022707028299575615
-0.009754833241529794
-0.02170316875790519
-0.07930192238105012
-0.01027142617527389
-0.05617933558752674
-0.0111259929662898
-0.033856052731377914
-0.01806707932789282
-0.002891523195105859
-0.00022093537252944375
-0.026005755965667093
-0.0002655376330611973
-0.025822870378377636
-0.025754483692721233
-0.05441248993269917
-0.01221701486019165
-0.0013054511230578528
-0.05294116961579836
-0.0018300089379266115
-0.008466905090207106
-0.04158531974233346
-0.007716993577454185
-0.032679305063736556
-0.00025495710825388995
-0.03424120746442941
-0.00033487371620406667
-0.032426498651429526
-0.0018958690259673866
-0.00023764745663999484
-0.000249950446559495
-0.0006652452983042614
-0.00031480772364918757
-0.03021919857047472
-0.0008410744085219006
-0.00448460002177517
-0.0012403356127279786
-0.054578402134803396
-0.002661614357823005
-0.010723766699973726
2.4242456643998894e-06
-0.012500748583114561
3.1041875868665456e-06
-0.06720292443544734
-0.019113487646040827
-0.010973786566445648
-0.030030719380843125
-0.05908979967742376
-0.000779105181554915
-0.029429615039788342
-0.00092756873676395
-0.030014363283449294
-0.0023579151552584714
-0.00013054124289269022
-0.00016908267715495177
-0.006445341196845436
-0.01307311475185962
-0.020438491685358915
-0.08318349808824499
-0.03616300424388184
-0.060505793652356234
-0.00592343850063697
-0.001620471232225039
-0.001224985431167663
-0.08278564389779519
-0.08898489551316775
-0.07391163647659543
-0.023150072466919993
-0.0017487560042217217
-0.0018181779404118233
-0.05676839654923811
-0.0007343288060276515
-0.008584420446612947
-0.0007856674030021573
-0.07701089429014406
-0.06930777545751486
-0.016607045827923328
-0.0005852072851941406
-0.04326893691441155
-0.0007523411116563631
-0.038019244885061566
-0.002365881480499512
-0.0011674697400639413
-0.055769089684643294
-0.0034597460699466245
-0.03207013811796979
-0.0011744777906935618
-0.0004482989799314624
-0.00031297851211114814
-0.06473558279946284
-0.04783151968631893
-0.06422006887093944
-0.03097837190081262
-0.07125698182932926
-0.005584730092886484
-0.07701462366510604
-0.0029515929361130545
-0.009765163161335884
-0.05578939114884568
-0.031077357793483244
-0.013874409070554445
-0.021097161065152043
-0.08738909287665794
-0.0118076505102722
-0.01607488099664693
-0.008911730353366537
-5.66390249568001e-05
-4.219595233903378e-05
-6.868082875715858e-05
-0.027768126798944397
-0.0040537025924086995
-0.02546308405452645
-7.914306832869692e-05
-0.01679905975277178
-0.04280286490258172
-0.013200725395116119
-0.04462485448869435
-0.04479383069027929
-0.01247579826974741
-0.033304405524201566
-0.00894447114989233
-0.06317017582125076
-0.039505377501277736
-0.07074421386256935
-0.001972174492106505
-0.03471055634798176
-0.002149062820755582
-0.08196835668162578
-0.06330451670877427
-0.002847310789744961
-0.062353727865841625
-0.001969680850294934
-0.04677124080430787
-0.04228799253861568
-0.003203570869232655
-0.0022276861977799664
-0.007300101813295239
-0.02135795870789718
-0.004997199785265413
-0.07819777300064851
-0.0024199447778680094
-0.0624509670839586
-0.0014740946986955576
-0.005428179496618319
-0.02719142902669007
-3.7754188356309504e-05
-0.023649594121515436
-6.580107064396784e-05
-0.0031032374554739645
-9.998955162397255e-05
-0.022148680806734593
-0.00012520220212482134
-0.015579561969031588
-0.015760392770457706
-0.055313892903747525
-0.004769936620480286
-8.861496980629513e-05
-0.023523847116010316
-0.00011486219053296519
-0.028551543444779913
-0.002697844024886146
-8.718117037490524e-05
-0.00012129321653397863
-0.04742371066697737
-0.040637120394978174
-0.001406199060214897
-0.0488697978991752
-0.0017150807046084036
-0.010292027079435188
-0.00330671497180739
-0.07426484743329326
-0.007440214951864943
-0.05901151497622466
-0.003674602706105683
-0.05259380906637036
-0.004249183347911761
-0.007329239797112301
-0.03152297622702032
-0.006271832154633278
-0.039651322468919024
-0.08440907724597568
-0.08401885954403134
-0.016010387153769092
-0.034323485522494056
-0.010824526980475823
-0.039858074064888824
-0.01736071500635271
-9.73375266456349e-05
-0.00014729789414414033
-0.034496304604844624
-0.003198514408788182
-0.06176361433490538
-0.004269381122007077
-0.07535133424223077
-0.00428251984003189
-0.04320996844426702
-0.004463265809093141
-0.022480344444153446
-0.0643676559598653
-0.045673353285233226
-0.023073467182233794
-0.02275577776241678
-0.08369857987933789
-0.00040309942376845167
-0.00010497992267194851
-0.018830604351108688
-0.0002052876656465537
-0.04208231313409704
-0.08198597539438227
-0.02002207790539098
-0.03642958442361456
-0.023197141043045308
-0.005421771460269133
-2.3784772342131255e-07
-0.008089115222575369
-0.018398705701329003
-0.016256816434883397
1.8211075441984809e-06
2.817963938919025e-06
-1.0236093820893371e-07
-0.0524383906684268
-0.004378039288355731
-0.004657086223153709
-0.02462249532543218
-0.019202269785629885
-0.004009073966961671
-0.0036472000102446803
-0.08437625371320331
-0.03901581117426426
-0.011386826296975338
-0.04126895331750782
-0.00964000631259941
-0.029035581315386944
-0.08329334510642222
-0.037107156781255805
-0.002176883547089917
-0.05573458019489784
-0.0027635690230247575
-0.0753806656059846
-0.008615124270677866
-0.06666388467307958
-0.011287776806804792
-0.0804813380337063
-0.041344647027995354
-0.005346234963500797
-0.06577922776613318
-0.0072229545716811045
-0.047617770713660516
-0.015344794119189561
-0.00021703852212724085
-0.0002941338272835946
-0.07736993582095476
-0.020202767200535127
-0.00232596761740711
-0.002232275880747286
-0.057553367503054786
-0.022489920048281493
-0.04973403076405133
-0.08665567848971949
-0.01714088244604028
-0.010510643679008289
-0.018941233574669196
-0.05861482665942972
-0.03092929744778263
-0.013335480808892079
-0.007819988664511248
-0.025012202670325116
-0.0060256320088729574
-0.03644388775536214
-0.005556764247558224
-0.015295232769766786
-0.0035232567229248174
-0.006505039372513834
-0.06377124924800319
-0.08077269490610019
-0.031088305417010006
-0.0033208770311049835
-0.003237033251193736
-0.01853044792980521
-0.00030776025287429054
-0.03781436125838662
-0.0003927671528542664
-0.04798214624588211
-0.008818714572176957
-0.0003124624621724378
-0.00038822843433057504
-0.038354937345365506
-0.017669230957836454
-0.053902140819696735
-0.012607133637981457
-0.005009600217577254
-0.012494752598942598
-0.027057313319380136
-0.000923991544947447
-0.00022184233814289306
-0.00019054324356645904
-0.07555012738379306
-0.01720431200863475
-0.03187431135373509
-0.00012391874774706038
-0.00016925455703372945
-0.07027234084022703
-0.005470640204833521
-0.049801156718245664
-0.005887060547978374
-0.04500208051858144
-0.024571427856869294
-0.003580424743403681
-0.06813651972102505
-0.005407993139510218
-0.07822523157160026
-0.003784840090170502
-0.012692071788176018
-0.002706114836044968
-0.08671880995998794
-0.03421354989130471
-0.08762495104250342
-0.058892110194643604
-0.0005896509529236314
-0.021588101219545974
-0.0007129109035026838
-0.015262975896187346
-0.005935945622685626
-0.051374922844914996
-0.009144242938926841
-2.1300109725724857e-05
-0.02307076117671036
-3.461957921707222e-05
-0.0225497452117688
-0.003738995020398978
-1.0941707336415938e-05
-2.266370876593256e-05
-0.07307334695117751
-0.012282412702195914
-0.00641930951060904
-0.01931693849456274
-0.05628183364793527
-0.0010134364332387512
-0.036915315144176404
-0.0011961140951361037
-0.020277907036162963
-0.0009678366933962366
-0.0017558839053810776
-0.049883522373830286
-0.04294526168653352
-0.008117131546141881
-0.04676193526662837
-0.007951510794499829
-0.0008003458786559391
-0.0001301091839025959
-0.02205927639761185
-0.00022069555815314935
-0.07139054295915873
-0.0705544126453077
-0.07326815366196839
-0.015138484211864933
-0.0023380866092381123
-0.06358657930232478
-0.0036958750768615383
-0.057269964277559954
-0.0009758306132877088
-0.006708866177968495
-0.000924417735116813
-0.030781393818834706
-0.00015766632113121327
-0.03135177186623902
-0.00021840965457827968
-0.03648483422840218
-0.03794338011228583
-0.0005230956305296259
-0.039097980735974876
-0.0006518967375762399
-0.08844786354729828
-0.022387543442936617
-0.004530578392731828
-0.007628880448679103
-0.04786497871893798
-0.0003700083414109743
-0.029099991762661946
-0.00047574428934314634
-0.007806419274457129
-0.004874940865749813
-0.018596764101444514
-0.023330169571365026
-0.01251448595717227
-0.0006932723320316622
-0.04682339226192463
-0.0010766576826450448
-0.017290298266920676
-0.0006354233188914622
-4.921702843694338e-05
-6.112812211768852e-05
-0.006270955410058874
-0.01158713079287393
-0.03996800726390108
-0.01286655819732602
-0.021919010204089068
-0.06505165833644631
-0.023888602167437083
-0.03487419570283983
-0.006902485282183055
-0.010488194094227238
-0.0010597808217245913
-9.639092217345658e-05
-0.019826032992485334
-0.00013505963732193466
-0.014800947794103621
-0.015512184044151167
-0.007242704892878872
-0.019091152006066182
-0.04681394903698007
-0.021930289198133994
-0.00022413451810545968
-0.00030444067877524766
-0.018897275601196042
-0.08696291617913818
-0.006312943219376564
-0.00215865690332545
-0.06640272862750773
-0.004983623478450804
-0.05533729981740196
-0.049844548397766246
-0.0208156242550494
-0.07207497149548137
-0.01150523674991251
-0.051633327639518445
-0.011433370837005923
-0.007019157637460724
-0.06462009936354517
-0.009027631137633427
-0.04490543937110872
-0.023853530019186973
-0.05415211104751778
-0.000410369709500862
-0.0001762248677156256
-0.02261548056698363
-0.000435576246518769
-0.009569466278331171
-0.0036714136605410686
-0.07833782452783707