# vtk DataFile Version 1.0
2D Simulation C++
ASCII
DATASET UNSTRUCTURED_GRID
FIELD FieldData 1
NODES 1 2 int
2209 4256

POINTS 2209 double
0.0 0.0 0.0
0.0 1.0 0.0
1.0 1.0 0.0
1.0 0.0 0.0
0.0 0.02500000037252903 0.0
0.0 0.05000000074505806 0.0
0.0 0.07500000298023224 0.0
0.0 0.10000000149011612 0.0
0.0 0.125 0.0
0.0 0.15000000596046448 0.0
0.0 0.17499999701976776 0.0
0.0 0.20000000298023224 0.0
0.0 0.22499999403953552 0.0
0.0 0.25 0.0
0.0 0.2750000059604645 0.0
0.0 0.30000001192092896 0.0
0.0 0.32499998807907104 0.0
0.0 0.3499999940395355 0.0
0.0 0.375 0.0
0.0 0.4000000059604645 0.0
0.0 0.42500001192092896 0.0
0.0 0.44999998807907104 0.0
0.0 0.4749999940395355 0.0
0.0 0.5 0.0
0.0 0.5249999761581421 0.0
0.0 0.550000011920929 0.0
0.0 0.574999988079071 0.0
0.0 0.6000000238418579 0.0
0.0 0.625 0.0
0.0 0.6499999761581421 0.0
0.0 0.675000011920929 0.0
0.0 0.699999988079071 0.0
0.0 0.7250000238418579 0.0
0.0 0.75 0.0
0.0 0.7749999761581421 0.0
0.0 0.800000011920929 0.0
0.0 0.824999988079071 0.0
0.0 0.8500000238418579 0.0
0.0 0.875 0.0
0.0 0.8999999761581421 0.0
0.0 0.925000011920929 0.0
0.0 0.949999988079071 0.0
0.0 0.9750000238418579 0.0
0.02500000037252903 1.0 0.0
0.05000000074505806 1.0 0.0
0.07500000298023224 1.0 0.0
0.10000000149011612 1.0 0.0
0.125 1.0 0.0
0.15000000596046448 1.0 0.0
0.17499999701976776 1.0 0.0
0.20000000298023224 1.0 0.0
0.22499999403953552 1.0 0.0
0.25 1.0 0.0
0.2750000059604645 1.0 0.0
0.30000001192092896 1.0 0.0
0.32499998807907104 1.0 0.0
0.3499999940395355 1.0 0.0
0.375 1.0 0.0
0.4000000059604645 1.0 0.0
0.42500001192092896 1.0 0.0
0.44999998807907104 1.0 0.0
0.4749999940395355 1.0 0.0
0.5 1.0 0.0
0.5249999761581421 1.0 0.0
0.550000011920929 1.0 0.0
0.574999988079071 1.0 0.0
0.6000000238418579 1.0 0.0
0.625 1.0 0.0
0.6499999761581421 1.0 0.0
0.675000011920929 1.0 0.0
0.699999988079071 1.0 0.0
0.7250000238418579 1.0 0.0
0.75 1.0 0.0
0.7749999761581421 1.0 0.0
0.800000011920929 1.0 0.0
0.824999988079071 1.0 0.0
0.8500000238418579 1.0 0.0
0.875 1.0 0.0
0.8999999761581421 1.0 0.0
0.925000011920929 1.0 0.0
0.949999988079071 1.0 0.0
0.9750000238418579 1.0 0.0
1.0 0.9750000238418579 0.0
1.0 0.949999988079071 0.0
1.0 0.925000011920929 0.0
1.0 0.8999999761581421 0.0
1.0 0.875 0.0
1.0 0.8500000238418579 0.0
1.0 0.824999988079071 0.0
1.0 0.800000011920929 0.0
1.0 0.7749999761581421 0.0
1.0 0.75 0.0
1.0 0.7250000238418579 0.0
1.0 0.699999988079071 0.0
1.0 0.675000011920929 0.0
1.0 0.6499999761581421 0.0
1.0 0.625 0.0
1.0 0.6000000238418579 0.0
1.0 0.574999988079071 0.0
1.0 0.550000011920929 0.0
1.0 0.5249999761581421 0.0
1.0 0.5 0.0
1.0 0.4749999940395355 0.0
1.0 0.44999998807907104 0.0
1.0 0.42500001192092896 0.0
1.0 0.4000000059604645 0.0
1.0 0.375 0.0
1.0 0.3499999940395355 0.0
1.0 0.32499998807907104 0.0
1.0 0.30000001192092896 0.0
1.0 0.2750000059604645 0.0
1.0 0.25 0.0
1.0 0.22499999403953552 0.0
1.0 0.20000000298023224 0.0
1.0 0.17499999701976776 0.0
1.0 0.15000000596046448 0.0
1.0 0.125 0.0
1.0 0.10000000149011612 0.0
1.0 0.07500000298023224 0.0
1.0 0.05000000074505806 0.0
1.0 0.02500000037252903 0.0
0.9750000238418579 0.0 0.0
0.949999988079071 0.0 0.0
0.925000011920929 0.0 0.0
0.8999999761581421 0.0 0.0
0.875 0.0 0.0
0.8500000238418579 0.0 0.0
0.824999988079071 0.0 0.0
0.800000011920929 0.0 0.0
0.7749999761581421 0.0 0.0
0.75 0.0 0.0
0.7250000238418579 0.0 0.0
0.699999988079071 0.0 0.0
0.675000011920929 0.0 0.0
0.6499999761581421 0.0 0.0
0.625 0.0 0.0
0.6000000238418579 0.0 0.0
0.574999988079071 0.0 0.0
0.550000011920929 0.0 0.0
0.5249999761581421 0.0 0.0
0.5 0.0 0.0
0.4749999940395355 0.0 0.0
0.44999998807907104 0.0 0.0
0.42500001192092896 0.0 0.0
0.4000000059604645 0.0 0.0
0.375 0.0 0.0
0.3499999940395355 0.0 0.0
0.32499998807907104 0.0 0.0
0.30000001192092896 0.0 0.0
0.2750000059604645 0.0 0.0
0.25 0.0 0.0
0.22499999403953552 0.0 0.0
0.20000000298023224 0.0 0.0
0.17499999701976776 0.0 0.0
0.15000000596046448 0.0 0.0
0.125 0.0 0.0
0.10000000149011612 0.0 0.0
0.07500000298023224 0.0 0.0
0.05000000074505806 0.0 0.0
0.02500000037252903 0.0 0.0
0.5033146602785931 0.5025701890157949 0.0
0.7098253003859503 0.7017308778451694 0.0
0.7015821344299593 0.29288032882682646 0.0
0.29540408613703917 0.7056945575328716 0.0
0.29275990570523475 0.295790712822461 0.0
0.775645911137735 0.5028356698046734 0.0
0.5005423501687184 0.22074437745511574 0.0
0.49091775425120404 0.7776956497140156 0.0
0.2210497887241778 0.49642378334410947 0.0
0.8264462733923698 0.8199758309319196 0.0
0.8195613811772074 0.17002529849748332 0.0
0.17800255337336537 0.8276713105345479 0.0
0.16960776788123083 0.17824146527193807 0.0
0.6415684575716709 0.5647612159258314 0.0
0.5619535141999292 0.3657442830555215 0.0
0.44025068393855965 0.6348737944876259 0.0
0.3601683764851621 0.42831239986983394 0.0
0.8440145772478033 0.64202733052537 0.0
0.6430904088107741 0.153832466093429 0.0
0.3490785992046865 0.841094983160255 0.0
0.15359929884686024 0.3548692202944067 0.0
0.6463112197254384 0.8418828632638606 0.0
0.8415075430136673 0.35634278642146483 0.0
0.15571894607386727 0.642056271455597 0.0
0.3567350438107066 0.15614302027139226 0.0
0.6724284135062233 0.44670356556698476 0.0
0.5821126483466111 0.6762597711423171 0.0
0.44474390852796947 0.3202329514718658 0.0
0.32657467751646013 0.556215013724776 0.0
0.8817499469559508 0.5295409430289227 0.0
0.5296843549340838 0.11158289197261602 0.0
0.4656122870429652 0.8852911365563658 0.0
0.11128402676274084 0.4681676940273613 0.0
0.8959202628268914 0.7406463918169475 0.0
0.7410106835130047 0.10115963049045165 0.0
0.2570751539788767 0.8954553350312251 0.0
0.10192317918539104 0.257243173137104 0.0
0.7427566102396125 0.8826853010086226 0.0
0.11614720505971783 0.7422269074154048 0.0
0.8812467288443977 0.255297043370814 0.0
0.2548374291403339 0.11694223953065726 0.0
0.7407067598939029 0.6025475142743587 0.0
0.6075997002327599 0.24931060218013085 0.0
0.39362908410600034 0.7478855133622545 0.0
0.25190358334900764 0.39490078802866474 0.0
0.5217399283540957 0.591729530229663 0.0
0.8968236348013282 0.8844464032668956 0.0
0.8838479481152001 0.09958670673426749 0.0
0.1136303308296667 0.8978505959873512 0.0
0.09973478471983882 0.11358465477820233 0.0
0.7611703389797417 0.3898844309829456 0.0
0.23682917951081442 0.6099297286427009 0.0
0.38906417667930593 0.23550928247629588 0.0
0.8968787931748675 0.4351310194871336 0.0
0.4350397178388127 0.1008481955758117 0.0
0.5633911290118997 0.8944405087632676 0.0
0.10074167316411956 0.5625245438419089 0.0
0.7864354613420198 0.7414978561877339 0.0
0.7415272497758365 0.2100624314805893 0.0
0.255861213400465 0.7875977368969697 0.0
0.21002856943687456 0.25590605238452013 0.0
0.7184185771931453 0.800424163855228 0.0
0.7937596616976805 0.28189123907518626 0.0
0.20358803542969214 0.7162298991375573 0.0
0.28607943736119557 0.20008426272802055 0.0
0.5923640687843836 0.4939369420707786 0.0
0.4890429963883467 0.411702594745601 0.0
0.42327994160460014 0.5466609983346469 0.0
0.6306117375894366 0.7585645780510275 0.0
0.6506845253008073 0.3525757018465387 0.0
0.4943124260076366 0.6925985513929723 0.0
0.3521616703032097 0.6425263532376208 0.0
0.34751926217365764 0.3475996212906476 0.0
0.9142992723030119 0.8144294098973888 0.0
0.8144216540746957 0.08241144093099714 0.0
0.1829645660452128 0.9148980599734892 0.0
0.08238104877378857 0.18318731270985292 0.0
0.8259984786227854 0.9092992117121179 0.0
0.08903496758729444 0.8266798007850997 0.0
0.9089234871854742 0.17098596037853506 0.0
0.17088481099582445 0.08882154393285817 0.0
0.6974574671590354 0.5161935455007817 0.0
0.6478864451187446 0.6480150927306603 0.0
0.5110985613758882 0.30259402159812726 0.0
0.2979485721294719 0.48450148000561855 0.0
0.916890897774029 0.6056350569984865 0.0
0.6115786177191084 0.08384109780814164 0.0
0.3946563734500871 0.9191824326720545 0.0
0.08154288187662564 0.38605460417428383 0.0
0.6621130408435613 0.9183327297501908 0.0
0.07904837387508377 0.6608518828076401 0.0
0.9183304214395336 0.3368333987324668 0.0
0.336834532423997 0.07937154537272018 0.0
0.8210035205236527 0.4342706579222355 0.0
0.5653545414135945 0.8165129400827698 0.0
0.43390605197149124 0.17611645405821122 0.0
0.1764405089112038 0.564181118049201 0.0
0.43183224780889184 0.4583945710255042 0.0
0.8181375054187501 0.5680225064423767 0.0
0.5669240269160686 0.17983041693041477 0.0
0.42917492448711675 0.8183986788252597 0.0
0.1793426775117335 0.43109056783481287 0.0
0.7700799962507291 0.6664125594204653 0.0
0.6670204829507818 0.22399486158154916 0.0
0.3300848462990658 0.7749580367098701 0.0
0.22402956631061674 0.33125035609956344 0.0
0.9272791529114515 0.6826114213109051 0.0
0.6833643261905462 0.07041172314127199 0.0
0.3115396796245767 0.9251299439058368 0.0
0.07219288819362185 0.3107044844002495 0.0
0.5601052066792811 0.7404439638434418 0.0
0.6007735364281594 0.4178457088187976 0.0
0.37340056913776803 0.4990182591929254 0.0
0.7334619316379966 0.4562130839623098 0.0
0.45383958841496497 0.2619257083757133 0.0
0.2651410968256925 0.5423658831072969 0.0
0.5858586857075866 0.6137377763463048 0.0
0.4160210617704723 0.38693793369547663 0.0
0.5702667763999305 0.5410940141345466 0.0
0.546211367974089 0.4478118580568311 0.0
0.9328465433883725 0.4947004952678773 0.0
0.49633347712270626 0.06471962068581055 0.0
0.5003126229345738 0.9310340882298814 0.0
0.06443139622174268 0.5015708830586829 0.0
0.8446512256240598 0.496360445681708 0.0
0.49503373207291407 0.15235246118031995 0.0
0.49773233660524974 0.8417357532972777 0.0
0.15247502762569326 0.5025921231401971 0.0
0.8431006852328321 0.6961662446219834 0.0
0.6970549231525315 0.1541180507918492 0.0
0.29970939779281236 0.8429255460990392 0.0
0.15448168425889025 0.3008001962246026 0.0
0.7690576596052432 0.8370243382400799 0.0
0.8349997674959664 0.2275324512867986 0.0
0.16264717999958964 0.769970291813189 0.0
0.22696054965867252 0.16274901225170696 0.0
0.7610012605834828 0.3254159375750183 0.0
0.23580414110796477 0.6734795900550459 0.0
0.3242689887813182 0.23660554811600845 0.0
0.6381246973213163 0.2998317597411201 0.0
[...]
POINT_DATA 2209
SCALARS Psi double
LOOKUP_TABLE default
0.0
0.0
0.0
0.0
0.0
0.0
0.0
0.0
0.0
0.0
0.0
0.0
0.0
0.0
0.0
0.0
0.0
0.0
0.0
0.0
0.0
0.0
0.0
0.0
0.0
0.0
0.0
0.0
0.0
0.0
0.0
0.0
0.0
0.0
0.0
0.0
0.0
0.0
0.0
0.0
0.0
0.0
0.0
0.0
0.0
0.0
0.0
0.0
0.0
0.0
0.0
0.0
0.0
0.0
0.0
0.0
0.0
0.0
0.0
0.0
0.0
0.0
0.0
0.0
0.0
0.0
0.0
0.0
0.0
0.0
0.0
0.0
0.0
0.0
0.0
0.0
0.0
0.0
0.0
0.0
0.0
0.0
0.0
0.0
0.0
0.0
0.0
0.0
0.0
0.0
0.0
0.0
0.0
0.0
0.0
0.0
0.0
0.0
0.0
0.0
0.0
0.0
0.0
0.0
0.0
0.0
0.0
0.0
0.0
0.0
0.0
0.0
0.0
0.0
0.0
0.0
0.0
0.0
0.0
0.0
0.0
0.0
0.0
0.0
0.0
0.0
0.0
0.0
0.0
0.0
0.0
0.0
0.0
0.0
0.0
0.0
0.0
0.0
0.0
0.0
0.0
0.0
0.0
0.0
0.0
0.0
0.0
0.0
0.0
0.0
0.0
0.0
0.0
0.0
0.0
0.0
0.0
0.0
0.0
0.0
-0.02592014233124493
-0.049267783053490194
-0.007598459512334184
-0.0377256848827824
-0.007162120971179782
-0.015547610062185455
-0.006389688738651906
-0.062167894617585887
-0.01274799119200796
-0.05333607230609302
-0.001623582655338062
-0.034683948831454973
-0.0015367931190370522
-0.031199692638285943
-0.0143342188162369
-0.0398511351688636
-0.016188630949912297
-0.019838593972010505
-0.003105282464597522
-0.058014719795696695
-0.004134462246297721
-0.06930305593197966
-0.004638088990953085
-0.01409850076706755
-0.003060802564549545
-0.017678707481850305
-0.049397991749434274
-0.011257274565825473
-0.024485532090507432
-0.006772808899720936
-0.002052652949254414
-0.06191703485728088
-0.004114032852819463
-0.0201479038156148
-0.0011056068472213988
-0.04886240825581302
-0.0012391016301030735
-0.06347392614213701
-0.014237076927002094
-0.00162280650127565
-0.0013144860582581484
-0.02932910017383261
-0.007260747536917463
-0.05255832016096128
-0.009798911329405054
-0.03646779404592027
-0.03837722234006939
-0.00029350308961203115
-0.02767426521175293
-0.0002775238615906965
-0.009805755599762433
-0.021449004803017813
-0.006381844020070315
-0.0033525968986214513
-0.0016504277767105035
-0.062317218947422044
-0.00514835276388586
-0.047591553572023236
-0.0037700394257697673
-0.04293156884893163
-0.0037981717898188075
-0.06526118977299256
-0.004569477518037535
-0.026835722957737247
-0.0037232074529994523
-0.02456676826517286
-0.017757749412645147
-0.028623007105813378
-0.06250863855122674
-0.011980100555399924
-0.05035791861371409
-0.035373640772021965
-0.010982622598431956
-0.02358965890865064
-0.0004759594034311076
-0.03987865033379539
-0.00048018769873773605
-0.05192938683175671
-0.014646072620953318
-0.0005057126764456707
-0.0004507531299732378
-0.022629650565860724
-0.043301235181270256
-0.010609279597915213
-0.017086618361021485
-0.005578218048661561
-0.0011357491378767017
-0.051918594570037134
-0.001641433227186969
-0.0553998279959859
-0.005237727099820164
-0.0013383734786621712
-0.0008936995829009121
-0.008204821858701729
-0.06794386166839551
-0.00424736354660695
-0.012347412477909818
-0.02060445204043041
-0.01628309630494687
-0.004477795388633915
-0.06256597385053295
-0.007341424179166297
-0.035853187871910906
-0.0054332996380666715
-0.050358361632417435
-0.006291676880837693
-0.007438897029202147
-0.0007165688235868526
-0.04683472882085951
-0.0009161158925010414
-0.059477934943700954
-0.01759865048951083
-0.022035761226997512
-0.01523873974278445
-0.008207024078769058
-0.018886049165297146
-0.03956174763780272
-0.014964825503210715
-0.030126799539777045
-0.02079327503247016
-0.0020705791392324935
-0.0007937393648626722
-0.048993108126457977
-0.0018789401652680399
-0.00896386447025718
-0.003484158926584427
-0.06644522342949155
-0.00779604584158616
-0.02745497641855422
-0.0026968603151124263
-0.053562590868927194
-0.0031589524713947345
-0.06412321740704165
-0.002304119713834041
-0.025330803890421933
-0.001996770664500105
-0.007079622880753217
-0.027013525389869533
-0.005546099617353357
-0.009313200089876498
-0.043727043392943934
-0.010116230352189436
-0.05193011483632033
-0.0014078410790985
-0.0033498854517899916
-0.0008049982648825646
-0.03213628551808362
-0.04987281596679806
-0.017486186760849662
-2.5253154188042695e-05
-0.025491559885280925
-2.6629060106875208e-05
-0.0320404330653533
-0.0023564747338955397
-0.0006327903094927953
-0.04574298222080631
-0.0011824283154971218
-0.010983448123448203
-0.00040491673397014
-0.03977000716886891
-0.0004335010496473185
-0.04579215476537909
-0.005769616826090954
-0.00045772679066092366
-0.0003750709011481855
-0.04032025721955928
-0.0019351339211957882
-0.04481286903591568
-0.0019859717719395726
-0.06852543989780491
-0.00338430350757706
-0.016552203208043466
-0.0025704983351231407
-0.03981621001974386
-0.024902434877593593
-0.014147765037768593
-0.02160304948888096
-0.010445251746222302
-0.053616984224951154
-0.013727546076895364
-0.03266819432777139
-0.007579847874634094
-0.012339847623902762
-0.01829835586956337
-0.00013594993313494094
-0.031021130227561138
-0.00013286683055418187
-0.040806956343489076
-0.010585005791066603
-0.0001804868843856889
-0.00016435767487901618
-0.044748053058379825
-0.013165676279997821
-0.009557894723059485
-0.02693690505861014
-0.05643241633758039
-0.01179555059801538
-0.0027197758934406602
-0.06209213845492331
-0.004319203993300768
-0.053586290980525315
-0.005240123774595101
-0.0372931058992632
-0.004910164131639875
-0.06160156382044959
-0.025282618877191375
-0.005327835153670737
-0.05682515265499634
-0.007185855701351325
-0.04702902993276296
-0.004407336181882981
-0.0006206552728204933
-0.0004677202923687546
-0.04274103179846522
-0.0006976886989771733
-0.034274055736744635
-0.0006706939512718493
-0.008088141763554055
-0.00486087813981291
-0.016609668438310344
-0.04157842349784325
-0.05513422796492259
-0.0026873700462488334
-0.036629350300010965
-0.0025447007879878395
-0.009819753361148063
-0.030823335980055593
-0.007984799715232405
-0.0034439686130864388
-0.06603972892686416
-0.002035811133158347
-0.008280835084089626
-0.06772715258862133
-0.04193214747548145
-0.06734713961091646
-0.02492929984965815
-0.034703750389443344
-0.005523673375337561
-0.02147142522939469
-0.004018989726729878
-0.01685129116263455
-0.011442303453862743
-0.012866752605342636
-0.0009900157066032558
-0.0004919370552630162
-0.04261977633168962
-0.001594945872688834
-0.06018842850007789
-0.022994485620500233
-0.0013028326176674936
-0.0011598630412547335
-0.004902629393978957
-0.0020065216803653863
-0.06354199798275766
-0.004956650941817642
-0.011519190271779266
-0.006329330172917562
-0.017205256884998958
-0.020991038470023225
-0.026565900385726083
-0.016564526572050584
-0.0019046018275014147
-0.055827832880224554
-0.0024061267264732325
-0.003812271739479733
-0.00023802884761437584
-0.03085744029570904
-0.00023478844465835825
-0.0018300445040500114
-0.0002757677982029571
-0.035457306865891824
-0.00046332471504801037
-0.01440023489174288
-0.05238458043933323
-0.015784689660110623
-0.020592739345043316
-0.026595829198182288
-0.05690912780543342
-0.03651294877711593
-0.0011467155198384166
-0.04263672665989294
-0.0011597549117190625
-0.04575010311893511
-0.0058545270014085425
-0.04311208641931829
-0.005998973674331472
-0.0491106814848479
-0.0005498499891044575
-0.024719552239216118
-0.000510955838391174
-0.027926885264775617
-0.011943778753809267
-0.05647914994836691
-0.031026545722450286
-0.018044687899533597
-0.020912013751637346
-0.06442298623627409
-0.014541127388165789
-0.01754175276163187
-0.028496974046940373
-0.01808020739302497
-0.018815396797610656
-0.008369200965789613
-0.010036818001829791
-0.016158020441741184
-0.037848140556069505
-0.04491477139559393
-0.007863986430201598
-0.00014613060324225323
-0.03110174504830019
-0.00014946716183373028
-0.03861924703283265
-0.005007953043556053
-0.00021426503234220622
-0.0001856090826503943
-0.01941240871728986
-0.022846794867242247
-0.029131876771847996
-0.0064232025482960425
-0.009625641578042982
-0.011077244758977436
-0.003561642286135535
-0.0644921046718514
-0.006796071882583984
-0.06633788624310115
-0.010732009685207673
-0.0027721158615402535
-0.0019116056470879275
-0.03515080807642257
-0.0014649433367859034
-0.00041661867133543397
-0.0002674896538692755
-0.0015897355206527831
-0.00040362923820641273
-0.034007560729763825
-0.0006480450255636594
-0.006513453783572118
-0.0030439827195088876
-0.06759860559664081
-0.00835386979914698
-0.013741792686572689
-0.005701067500619321
-0.06897346280705705
-0.003259476050901036
-0.011572145163244752
-0.007197111726164147
-0.049442395373238045
-0.008680221689655442
-0.0587584494374819
-0.014262763881606005
-0.0009906615878911675
-0.0008426192075662596
-0.045888290085539435
-0.023047338256227234
-0.0007673641554033028
-0.04437797808856562
-0.000804147117604161
-0.01294512972712292
-0.0021343656269753324
-0.058807261459749106
-0.002956512013838727
-0.014144232984542874
-3.776285482549199e-05
-0.02384002788449394
-3.624378726503382e-05
-0.006772956824553979
-0.027416451281577235
-3.077833960395393e-05
-3.238399216153874e-05
-0.05798173204301947
-0.02981332852975353
-0.003963104683365746
-0.05381481759024589
-0.004749636267186845
-0.06164892798800184
-0.009252904755026246
-0.0016800191423054951
-0.0012396185551196
-0.04644205302256997
-0.009689396266141046
-0.03670241371837725
-0.00907909811904849
-0.005971552607642576
-0.01049078366916834
-0.017544760722585425
-0.012582144370289972
-0.01093861510936677
-0.004911852065935868
-0.011695697435512459
-0.005204196022708733
-0.0013560410446676857
-0.05647398126126921
-0.0023912421152853464
-0.06443650660952016
-0.022702893418396094
-0.027620904696988094
-0.03384542447860352
-0.03485062650912816
-0.00914131573458511
-0.011215687008104705
-0.017631014188971936
-0.0036565889390613106
-0.06101013649929198
-0.005344416912745127
-0.0075229920852954105
-0.005166471372332829
-0.021442018334271243
-0.06358361366160599
-0.02076048138699156
-0.0404705826654196
-0.004396040290175495
-0.047632086106317334
-0.004755800561073043
-0.000876944670034812
-0.00028979632762622404
-0.03323123027357319
-0.0006276824531772127
-0.035358636468680926
-0.03592968335122902
-0.04811177798059884
-0.019834523389283897
-0.015357302322691321
-0.009481324573209349
-0.02292309256313557
-0.044824681507935615
-0.053095781445360486
-0.06669760989324132
-0.0028603226765978305
-0.022157253194184632
-0.002346024315966753
-0.06081745768097052
-0.0035128671690171026
-0.032712337616061835
-0.0031632590835187313
-0.03206704144643436
-0.0020576058365843848
-0.049533183742756205
-0.002240907784699834
-0.014037088532006312
-0.001046573325725558
-0.05027012880923661
-0.0012875252120143656
-0.014468255045963784
-0.007036659706764388
-0.015857571670244246
-0.05104744134760537
-0.007596526204056144
-0.043985146211432145
-0.008107747900986624
-0.020671801960646285
-0.012245325430774692
-0.002068964536412693
-0.00020229995005214524
-0.027584645677921044
-0.00022129467202324968
-0.017183388397089633
-0.01653209926666433
-0.03762739688815625
-0.008000661837602164
-0.0011170616341819393
-0.051612136294965964
-0.0014475766755014186
-0.006593163964810773
-0.033307097158075984
-0.005786167505748877
-0.029942035212330083
-0.00033892146545155843
-0.03433639562407542
-0.0003305281278834262
-0.03319052287575728
-0.001595033336135606
-0.0003030448379865822
-0.00021541313837229148
-0.000612728972485218
-0.00025488293889005067
-0.03111977532100207
-0.0006562660634986091
-0.003314566402755647
-0.0009922208239956716
-0.05235329765474006
-0.0020502451549304166
-0.01093699855201165
3.808028098113451e-07
-0.013772066115156502
7.158130107369588e-07
-0.04178812488677677
-0.012714661485018292
-0.00787241927528774
-0.02195598636419775
-0.05289313890022011
-0.0009159999658963552
-0.02808385139304276
-0.0008530190371230445
-0.031118576765121135
-0.002095439875156072
-0.0001895525258099999
-0.00015291194948668284
-0.004831601182027238
-0.009728519023377485
-0.012915695406666492
-0.05559346591718746
-0.022661626473952878
-0.05629426016181407
-0.004780746441889129
-0.0016036017290577916
-0.0009969152465956388
-0.06510881859682971
-0.06592072236042688
-0.06414887217777467
-0.020714040697399103
-0.0018211814708035544
-0.0015492814588425744
-0.054015101656628525
-0.0008668510049643241
-0.007531834626525801
-0.0006831784210429707
-0.06121091501249421
-0.04574353809707756
-0.01240114033936474
-0.000586106592388909
-0.0436166537045987
-0.0006446683012351148
-0.023433140911625183
-0.0020390035116935198
-0.0009330384111620911
-0.05286412829847367
-0.0026783829437040207
-0.03259588111841264
-0.0009271932681353619
-0.0004745231475856281
-0.00025403428177189687
-0.040379663752124734
-0.03169888841878783
-0.03838896359338133
-0.019693511451376513
-0.053395751368657804
-0.004457896338472757
-0.06655911676871715
-0.002318957025868533
-0.007615495481649782
-0.03293923866707236
-0.01951976221383228
-0.009667023053454593
-0.014854651823711566
-0.0649861296832056
-0.008398862579478965
-0.011482256467220224
-0.008368079253492795
-8.258280943373842e-05
-8.05521220546219e-05
-7.202851940567412e-05
-0.029584486457031628
-0.003822383294430206
-0.02721223451166843
-8.176232607151465e-05
-0.01151624619153646
-0.03155031941426287
-0.009368256054148628
-0.02814362755912439
-0.02708449148999767
-0.009032597374411193
-0.025435688628381324
-0.006567201033536159
-0.04444610666447959
-0.02605263790192783
-0.05816098019998907
-0.0019855050084129893
-0.031819926094402255
-0.001833770651293146
-0.05605214277842679
-0.04673289828657728
-0.002619870813446065
-0.049103906737773845
-0.0019380530425414408
-0.042618689188037615
-0.03937052507041022
-0.002631945116214568
-0.0018970307095622552
-0.005820280639890847
-0.016861089064241278
-0.0038549515981202024
-0.058894482886204164
-0.00218971072465284
-0.05764041861788795
-0.0011764259265097698
-0.00428858310162844
-0.027520385637057925
-7.922990173364779e-05
-0.02376611666605781
-7.52964428180823e-05
-0.002378620959505375
-0.00010622924141437917
-0.02373305540117707
-0.00011357591282688938
-0.010776224881189213
-0.011064009826392662
-0.040227175572035014
-0.003986462542902068
-0.00010293098955208783
-0.02537462226024287
-0.00010691120968979142
-0.029954715228453093
-0.002462373445346174
-0.00013674809022761668
-0.00011539804396305105
-0.028017512775614494
-0.0305158202720018
-0.0013833709526186399
-0.04707800328483311
-0.0014637022508749717
-0.007079198171754492
-0.0025864581453959507
-0.065103345490264
-0.005670724962060729
-0.0406848675239402
-0.003199351192100952
-0.04712304593171152
-0.0033905491563168736
-0.005901042684472334
-0.02535361759175373
-0.0047808489688114355
-0.023475403087694514
-0.06814709785151045
-0.06901843090743424
-0.011034132830955893
-0.025479963183875205
-0.007790047990836753
-0.03997792803260354
-0.01683312173621225
-0.00016893815088924935
-0.0001552658050638358
-0.021973251624115495
-0.002686537127965095
-0.05624510350901064
-0.003349784236705077
-0.05479344640482435
-0.003747351446045127
-0.03762462050430286
-0.0035482608793649256
-0.014841362670160384
-0.041055367582573464
-0.02939260986923383
-0.015086751879573137
-0.015666815697667504
-0.06034488800459714
-0.0003110748300462976
-9.097295111296686e-05
-0.020053145728792507
-0.00016935855808199193
-0.028810809726750704
-0.06763670441222905
-0.013532270364307455
-0.02324815837610203
-0.01564199138812202
-0.005140132258898302
-3.1990751727826217e-06
-0.008841173699964745
-0.019936983767542514
-0.01716658762065553
-2.8166240700030422e-06
-3.6979484382916457e-06
-3.852386013231068e-06
-0.035171858843164316
-0.0038788579694757517
-0.004053386246804864
-0.02051457641146939
-0.01565178795038101
-0.003181695028421696
-0.002890701725327266
-0.05642002226546202
-0.02358032135878704
-0.00838859925362344
-0.03184956107177646
-0.007058606148803721
-0.018199773309869206
-0.060559566714899905
-0.02524705484935684
-0.001956777363735714
-0.052399890648042485
-0.002250470016721869
-0.04911821758682332
-0.006438763384120312
-0.05341485162075933
-0.00825497165385632
-0.053735906799709465
-0.02523551294278056
-0.004227292174195729
-0.056682691411464835
-0.005482611620894843
-0.046851742584684435
-0.014738458260802851
-0.00032093377320388587
-0.0002915208530405583
-0.06648092611640491
-0.017503913676625467
-0.002314671385571743
-0.0018569325456125943
-0.03398971609183704
-0.014640645342645824
-0.03458123225620994
-0.06409729681454458
-0.011643183433262502
-0.007542941934173019
-0.013647365859651976
-0.03837035593724558
-0.018741165464647814
-0.009454785508748738
-0.005801373607165262
-0.018909417036380896
-0.00501869396268495
-0.030193793119169345
-0.004299991367710589
-0.009792186528818003
-0.0027702403032954393
-0.004952272398693561
-0.04846884688602242
-0.06478209968226618
-0.02702675899842968
-0.003092282298536647
-0.002640994201237502
-0.015616291373795457
-0.0003540683213772331
-0.03871058707362418
-0.000364046126540558
-0.04749782850007882
-0.008081621215828522
-0.00042414530210725134
-0.0003629446943136442
-0.022981680375203824
-0.011982476128821504
-0.03371212485886685
-0.008667013716958228
-0.003812965151514929
-0.009470310417688234
-0.02777675905264
-0.0007670285572999483
-0.000259540615339047
-0.000161196805758641
-0.04720073239851486
-0.015922109712827412
-0.03299723453907315
-0.0001718634315225384
-0.00017001862086200848
-0.047789527344655816
-0.004532543909839856
-0.042533793301032734
-0.004560898481755506
-0.027855433319173208
-0.015137701932732932
-0.0028760802337341835
-0.06104994474481541
-0.004163798293422654
-0.0672578648124733
-0.0033580835440051742
-0.01024309322481864
-0.0021651940080347973
-0.06034661458278702
-0.02321591969024805
-0.06883852578225134
-0.05482049654815144
-0.0007339394688503656
-0.020462452625707804
-0.0006653766205313662
-0.010621270975326414
-0.004065249088518778
-0.05019075567779939
-0.008965359163898031
-4.176990452524061e-05
-0.024541239035214497
-4.1085319762362615e-05
-0.024226395979998788
-0.0035562753907709436
-2.9809197690953873e-05
-2.8555157766904772e-05
-0.04796256837108392
-0.008757126665664318
-0.004821178423955987
-0.014661985785770631
-0.047989062547447954
-0.0011192237580135375
-0.03535866364892428
-0.0010765879057873403
-0.013447561022383717
-0.00079270239777674
-0.0013593245626659892
-0.029663757882218176
-0.025245477691106737
-0.006328649139904968
-0.037835395169587796
-0.005963243291299585
-0.0005655870827720984
-0.00011682328831949366
-0.023494119261116428
-0.0001851574914132433
-0.04443041704049106
-0.06308292271097263
-0.06349675519161603
-0.009618711096892626
-0.0019071005087562159
-0.05912320758238057
-0.002866092474936716
-0.05418333711097873
-0.001088127066952838
-0.005672517203677371
-0.0007766726189402398
-0.02912097957227816
-0.00023116798954023123
-0.031508280711222934
-0.000223541383299451
-0.025773978725432398
-0.03287057910772185
-0.0006147615192603178
-0.038729054540749465
-0.0006084997154023113
-0.06472831439825003
-0.013808126279225572
-0.003526253692991884
-0.005773654886452624
-0.044487182854216774
-0.000489722245687864
-0.028496266926214577
-0.0004603337170143878
-0.0061076165191476664
-0.003754906804005656
-0.01450837956031152
-0.014407123417305462
-0.008823056142742194
-0.0006478371673727459
-0.046718768206760616
-0.000889246431987571
-0.018314801684387032
-0.0005814182684678194
-7.279446151447718e-05
-5.8738043313848946e-05
-0.004719018118574294
-0.00861367917556468
-0.02483188926534146
-0.009037454939942
-0.01555804599409648
-0.03896761241130785
-0.01560967299751183
-0.020850519942650872
-0.0052182239944675865
-0.007762137681740656
-0.0007446149922414951
-9.182926432372387e-05
-0.021278145215947213
-0.00011746174518325574
-0.01036064096177601
-0.010548074502074015
-0.005384510089820887
-0.014294954187993893
-0.04527888484362487
-0.02134916817722114
-0.0003296665424473063
-0.00030435900862351914
-0.012675110286566102
-0.06851698839082118
-0.004586999434043292
-0.001709052280998727
-0.060699471252432385
-0.0038379311750371655
-0.034034610658588635
-0.03018597477986706
-0.014236483765559037
-0.060010573630430754
-0.008402320332486151
-0.039730596483092774
-0.008282300738108334
-0.005408388722306355
-0.053641734582144385
-0.006732582757409002
-0.030087836567988562
-0.016547236699474943
-0.03821987988613711
-0.00037459918845669977
-0.00014614527784592992
-0.023824330475664814