# vtk DataFile Version 1.0
2D Simulation C++
ASCII
DATASET UNSTRUCTURED_GRID
FIELD FieldData 1
NODES 1 2 int
11487 22538

POINTS 11487 double
0.0 0.0 0.0
0.0 10.0 0.0
32.5 10.0 0.0
32.5 0.0 0.0
13.0 5.0 0.0
0.0 0.2083333333331816 0.0
0.0 0.4166666666663233 0.0
0.0 0.6249999999994172 0.0
0.0 0.8333333333326349 0.0
0.0 1.04166666666568 0.0
0.0 1.249999999998791 0.0
0.0 1.458333333331611 0.0
0.0 1.666666666664457 0.0
0.0 1.874999999997179 0.0
0.0 2.083333333329919 0.0
0.0 2.29166666666265 0.0
0.0 2.499999999995354 0.0
0.0 2.708333333328122 0.0
0.0 2.916666666660837 0.0
0.0 3.124999999993536 0.0
0.0 3.333333333326252 0.0
0.0 3.541666666659101 0.0
0.0 3.7499999999919 0.0
0.0 3.95833333332492 0.0
0.0 4.166666666657787 0.0
0.0 4.374999999991584 0.0
0.0 4.583333333325113 0.0
0.0 4.791666666658768 0.0
0.0 4.999999999992389 0.0
0.0 5.208333333326173 0.0
0.0 5.416666666659847 0.0
0.0 5.624999999993369 0.0
0.0 5.833333333326991 0.0
0.0 6.04166666666059 0.0
0.0 6.249999999994291 0.0
0.0 6.45833333332789 0.0
0.0 6.666666666661593 0.0
0.0 6.874999999995292 0.0
0.0 7.083333333328785 0.0
0.0 7.291666666662543 0.0
0.0 7.499999999996195 0.0
0.0 7.708333333329818 0.0
0.0 7.916666666663446 0.0
0.0 8.124999999996966 0.0
0.0 8.333333333330796 0.0
0.0 8.541666666664229 0.0
0.0 8.749999999998593 0.0
0.0 8.958333333332396 0.0
0.0 9.166666666665398 0.0
0.0 9.374999999999057 0.0
0.0 9.583333333332716 0.0
0.0 9.791666666666446 0.0
0.2195945945946292 10.0 0.0
0.4391891891892643 10.0 0.0
0.6587837837838928 10.0 0.0
0.8783783783785378 10.0 0.0
1.097972972973173 10.0 0.0
1.317567567567727 10.0 0.0
1.537162162162276 10.0 0.0
1.756756756756815 10.0 0.0
1.976351351351453 10.0 0.0
2.195945945946212 10.0 0.0
2.415540540541 10.0 0.0
2.635135135135827 10.0 0.0
2.854729729730669 10.0 0.0
3.074324324325489 10.0 0.0
3.293918918920359 10.0 0.0
3.513513513515214 10.0 0.0
3.733108108110051 10.0 0.0
3.95270270270485 10.0 0.0
4.172297297299457 10.0 0.0
4.391891891893978 10.0 0.0
4.61148648648854 10.0 0.0
4.83108108108307 10.0 0.0
5.050675675677634 10.0 0.0
5.270270270272164 10.0 0.0
5.489864864866721 10.0 0.0
5.709459459461246 10.0 0.0
5.929054054055831 10.0 0.0
6.14864864865035 10.0 0.0
6.368243243244903 10.0 0.0
6.587837837839444 10.0 0.0
6.807432432433996 10.0 0.0
7.027027027028537 10.0 0.0
7.246621621623062 10.0 0.0
7.466216216217631 10.0 0.0
7.68581081081218 10.0 0.0
7.905405405406725 10.0 0.0
8.125000000001263 10.0 0.0
8.344594594595897 10.0 0.0
8.564189189190447 10.0 0.0
8.78378378378491 10.0 0.0
9.003378378379422 10.0 0.0
9.222972972973883 10.0 0.0
9.442567567568446 10.0 0.0
9.662162162163098 10.0 0.0
9.881756756757623 10.0 0.0
10.10135135135216 10.0 0.0
10.32094594594673 10.0 0.0
10.54054054054128 10.0 0.0
10.76013513513577 10.0 0.0
10.97972972973024 10.0 0.0
11.19932432432481 10.0 0.0
11.41891891891947 10.0 0.0
11.63851351351403 10.0 0.0
11.85810810810852 10.0 0.0
12.07770270270308 10.0 0.0
12.29729729729766 10.0 0.0
12.51689189189213 10.0 0.0
12.73648648648675 10.0 0.0
12.95608108108136 10.0 0.0
13.17567567567584 10.0 0.0
13.39527027027043 10.0 0.0
13.61486486486498 10.0 0.0
13.83445945945955 10.0 0.0
14.05405405405403 10.0 0.0
14.27364864864861 10.0 0.0
14.49324324324317 10.0 0.0
14.71283783783769 10.0 0.0
14.93243243243221 10.0 0.0
15.15202702702677 10.0 0.0
15.37162162162135 10.0 0.0
15.59121621621587 10.0 0.0
15.81081081081039 10.0 0.0
16.0304054054046 10.0 0.0
16.24999999999842 10.0 0.0
16.46959459459357 10.0 0.0
16.68918918918857 10.0 0.0
16.90878378378294 10.0 0.0
17.12837837837754 10.0 0.0
17.34797297297218 10.0 0.0
17.56756756756676 10.0 0.0
17.78716216216123 10.0 0.0
18.00675675675589 10.0 0.0
18.22635135135048 10.0 0.0
18.44594594594494 10.0 0.0
18.66554054053931 10.0 0.0
18.8851351351339 10.0 0.0
19.10472972972854 10.0 0.0
19.32432432432311 10.0 0.0
19.54391891891771 10.0 0.0
19.76351351351234 10.0 0.0
19.98310810810682 10.0 0.0
20.2027027027013 10.0 0.0
20.42229729729567 10.0 0.0
20.64189189189026 10.0 0.0
20.86148648648493 10.0 0.0
21.08108108107949 10.0 0.0
21.30067567567407 10.0 0.0
21.5202702702687 10.0 0.0
21.73986486486329 10.0 0.0
21.95945945945766 10.0 0.0
22.17905405405203 10.0 0.0
22.39864864864662 10.0 0.0
22.61824324324125 10.0 0.0
22.83783783783584 10.0 0.0
23.05743243243043 10.0 0.0
23.27702702702506 10.0 0.0
23.49662162161955 10.0 0.0
23.71621621621403 10.0 0.0
23.93581081080844 10.0 0.0
24.15540540540299 10.0 0.0
24.37499999999763 10.0 0.0
24.5945945945922 10.0 0.0
24.81418918918678 10.0 0.0
25.03378378378143 10.0 0.0
25.25337837837602 10.0 0.0
25.47297297297039 10.0 0.0
25.69256756756476 10.0 0.0
25.91216216215935 10.0 0.0
26.131756756754 10.0 0.0
26.35135135134857 10.0 0.0
26.57094594594316 10.0 0.0
26.79054054053779 10.0 0.0
27.01013513513227 10.0 0.0
27.22972972972675 10.0 0.0
27.44932432432123 10.0 0.0
27.66891891891571 10.0 0.0
27.88851351351034 10.0 0.0
28.10810810810493 10.0 0.0
28.3277027026995 10.0 0.0
28.54729729729415 10.0 0.0
28.76689189188874 10.0 0.0
28.98648648648311 10.0 0.0
29.20608108107755 10.0 0.0
29.42567567567207 10.0 0.0
29.6452702702667 10.0 0.0
29.86486486486129 10.0 0.0
30.08445945945587 10.0 0.0
30.30405405405051 10.0 0.0
30.52364864864511 10.0 0.0
30.74324324323948 10.0 0.0
30.96283783783396 10.0 0.0
31.18243243242844 10.0 0.0
31.40202702702307 10.0 0.0
31.62162162161766 10.0 0.0
31.8412162162133 10.0 0.0
32.06081081080907 10.0 0.0
32.28040540540442 10.0 0.0
32.5 9.791666666666847 0.0
32.5 9.583333333333298 0.0
32.5 9.375000000000053 0.0
32.5 9.16666666666667 0.0
32.5 8.958333333333238 0.0
32.5 8.750000000000004 0.0
32.5 8.541666666666522 0.0
32.5 8.333333333333337 0.0
32.5 8.125000000000188 0.0
32.5 7.916666666666682 0.0
32.5 7.708333333333083 0.0
32.5 7.500000000000007 0.0
32.5 7.291666666666648 0.0
32.5 7.083333333333152 0.0
32.5 6.875000000000169 0.0
32.5 6.666666666666677 0.0
32.5 6.458333333333286 0.0
32.5 6.250000000000205 0.0
32.5 6.041666666666765 0.0
32.5 5.833333333333344 0.0
32.5 5.625000000000259 0.0
32.5 5.416666666666645 0.0
32.5 5.208333333333162 0.0
32.5 5.000000000000009 0.0
32.5 4.791666666666845 0.0
32.5 4.583333333333441 0.0
32.5 4.375000000000156 0.0
32.5 4.166666666666674 0.0
32.5 3.958333333333325 0.0
32.5 3.750000000000146 0.0
32.5 3.541666666666826 0.0
32.5 3.333333333333339 0.0
32.5 3.125000000000124 0.0
32.5 2.916666666666771 0.0
32.5 2.708333333333419 0.0
32.5 2.500000000000004 0.0
32.5 2.291666666666834 0.0
32.5 2.083333333333418 0.0
32.5 1.874999999999931 0.0
32.5 1.66666666666667 0.0
32.5 1.458333333333218 0.0
32.5 1.249999999999639 0.0
32.5 1.041666666666494 0.0
32.5 0.8333333333333357 0.0
32.5 0.6249999999996962 0.0
32.5 0.4166666666658809 0.0
32.5 0.2083333333330462 0.0
32.28040540540399 0.0 0.0
32.06081081080831 0.0 0.0
31.84121621621306 0.0 0.0
31.62162162161768 0.0 0.0
31.40202702702306 0.0 0.0
31.18243243242847 0.0 0.0
30.962837837834 0.0 0.0
30.74324324323952 0.0 0.0
30.52364864864534 0.0 0.0
30.30405405405081 0.0 0.0
30.08445945945608 0.0 0.0
29.86486486486137 0.0 0.0
29.64527027026652 0.0 0.0
29.42567567567211 0.0 0.0
29.20608108107761 0.0 0.0
28.98648648648321 0.0 0.0
28.76689189188855 0.0 0.0
28.54729729729388 0.0 0.0
28.32770270269941 0.0 0.0
28.10810810810505 0.0 0.0
27.8885135135105 0.0 0.0
27.66891891891598 0.0 0.0
27.44932432432147 0.0 0.0
27.2297297297269 0.0 0.0
27.01013513513241 0.0 0.0
26.79054054053796 0.0 0.0
26.57094594594329 0.0 0.0
26.35135135134874 0.0 0.0
26.1317567567542 0.0 0.0
25.91216216215984 0.0 0.0
25.69256756756527 0.0 0.0
25.47297297297058 0.0 0.0
25.25337837837613 0.0 0.0
25.03378378378146 0.0 0.0
24.81418918918693 0.0 0.0
24.59459459459243 0.0 0.0
24.37499999999781 0.0 0.0
24.15540540540319 0.0 0.0
23.93581081080861 0.0 0.0
23.71621621621427 0.0 0.0
23.4966216216198 0.0 0.0
23.27702702702512 0.0 0.0
23.05743243243066 0.0 0.0
22.83783783783612 0.0 0.0
22.61824324324178 0.0 0.0
22.39864864864713 0.0 0.0
22.1790540540525 0.0 0.0
21.95945945945796 0.0 0.0
21.73986486486342 0.0 0.0
21.52027027026873 0.0 0.0
21.30067567567424 0.0 0.0
21.0810810810798 0.0 0.0
20.86148648648528 0.0 0.0
20.64189189189077 0.0 0.0
20.42229729729628 0.0 0.0
20.20270270270165 0.0 0.0
19.98310810810721 0.0 0.0
19.76351351351254 0.0 0.0
19.54391891891812 0.0 0.0
19.32432432432349 0.0 0.0
19.10472972972885 0.0 0.0
18.88513513513455 0.0 0.0
18.66554054053984 0.0 0.0
18.44594594594533 0.0 0.0
18.22635135135079 0.0 0.0
18.00675675675599 0.0 0.0
17.78716216216154 0.0 0.0
17.56756756756718 0.0 0.0
17.3479729729727 0.0 0.0
17.12837837837831 0.0 0.0
16.90878378378367 0.0 0.0
16.68918918918903 0.0 0.0
16.46959459459513 0.0 0.0
16.25000000000105 0.0 0.0
16.03040540540597 0.0 0.0
15.81081081081088 0.0 0.0
15.59121621621638 0.0 0.0
15.37162162162197 0.0 0.0
15.15202702702735 0.0 0.0
14.93243243243273 0.0 0.0
14.71283783783815 0.0 0.0
14.49324324324358 0.0 0.0
14.27364864864891 0.0 0.0
14.05405405405458 0.0 0.0
13.83445945945988 0.0 0.0
13.61486486486551 0.0 0.0
13.39527027027097 0.0 0.0
13.17567567567643 0.0 0.0
12.95608108108195 0.0 0.0
12.73648648648725 0.0 0.0
12.51689189189274 0.0 0.0
12.29729729729828 0.0 0.0
12.07770270270385 0.0 0.0
11.85810810810924 0.0 0.0
11.63851351351461 0.0 0.0
11.41891891892013 0.0 0.0
11.19932432432555 0.0 0.0
10.97972972973116 0.0 0.0
10.76013513513653 0.0 0.0
10.54054054054198 0.0 0.0
10.32094594594755 0.0 0.0
10.10135135135299 0.0 0.0
9.88175675675841 0.0 0.0
9.662162162163824 0.0 0.0
9.442567567569334 0.0 0.0
9.222972972974787 0.0 0.0
9.00337837838002 0.0 0.0
8.783783783785672 0.0 0.0
8.564189189191055 0.0 0.0
8.344594594596433 0.0 0.0
8.125000000001954 0.0 0.0
7.905405405407521 0.0 0.0
7.685810810813116 0.0 0.0
7.466216216218626 0.0 0.0
7.246621621623998 0.0 0.0
7.027027027029373 0.0 0.0
6.807432432434702 0.0 0.0
6.587837837840159 0.0 0.0
6.368243243245725 0.0 0.0
6.148648648651221 0.0 0.0
5.929054054056643 0.0 0.0
5.709459459462202 0.0 0.0
5.489864864867698 0.0 0.0
5.27027027027307 0.0 0.0
5.050675675678654 0.0 0.0
4.831081081084125 0.0 0.0
4.611486486489611 0.0 0.0
4.391891891894918 0.0 0.0
4.172297297300222 0.0 0.0
[...]
POINT_DATA 11487
SCALARS Psi double
LOOKUP_TABLE default
0.0
10.0
9.841792578442073
0.0
5.0
0.2083333333331816
0.4166666666663233
0.6249999999994172
0.8333333333326349
1.04166666666568
1.249999999998791
1.4583333333316113
1.666666666664457
1.874999999997179
2.083333333329919
2.29166666666265
2.499999999995354
2.708333333328122
2.916666666660837
3.1249999999935363
3.333333333326252
3.5416666666591015
3.7499999999919
3.95833333332492
4.166666666657787
4.374999999991584
4.583333333325113
4.791666666658768
4.999999999992389
5.208333333326173
5.4166666666598475
5.624999999993369
5.833333333326992
6.04166666666059
6.249999999994291
6.45833333332789
6.666666666661594
6.874999999995293
7.083333333328785
7.291666666662544
7.499999999996195
7.708333333329818
7.916666666663446
8.124999999996966
8.333333333330796
8.541666666664229
8.749999999998593
8.958333333332396
9.166666666665398
9.374999999999057
9.583333333332716
9.791666666666446
10.0
10.0
10.0
10.0
10.0
10.0
10.0
10.0
10.0
10.0
10.0
10.0
10.0
10.0
10.0
10.0
10.0
10.0
10.0
10.0
10.0
10.0
10.0
10.0
10.0
10.0
10.0
10.0
10.0
10.0
10.0
10.0
10.0
10.0
10.0
10.0
10.0
10.0
10.0
10.0
10.0
10.0
10.0
10.0
10.0
10.0
10.0
10.0
10.0
10.0
10.0
10.0
10.0
10.0
10.0
10.0
10.0
10.0
10.0
10.0
10.0
10.0
10.0
10.0
10.0
10.0
10.0
10.0
10.0
10.0
10.0
10.0
10.0
10.0
10.0
10.0
10.0
10.0
10.0
10.0
10.0
10.0
10.0
10.0
10.0
10.0
10.0
10.0
10.0
10.0
10.0
10.0
10.0
10.0
10.0
10.0
10.0
10.0
10.0
10.0
10.0
10.0
10.0
10.0
10.0
10.0
10.0
10.0
10.0
10.0
10.0
10.0
10.0
10.0
10.0
10.0
10.0
10.0
10.0
10.0
10.0
10.0
10.0
10.0
10.0
10.0
10.0
10.0
10.0
10.0
10.0
10.0
10.0
10.0
10.0
10.0
10.0
10.0
10.0
10.0
10.0
10.0
10.0
10.0
10.0
10.0
10.0
9.71487460423088
9.535315188552833
9.321002001791676
9.099489025661468
8.877439212351423
8.655691285267018
8.434334765114446
8.213530501163953
7.993511487698667
7.774502167546729
7.557072094922693
7.341589061884154
7.12806101181616
6.9175304203413015
6.710251453729736
6.506258281903149
6.306596854001465
6.111103391181952
5.919446628427285
5.7317816466433715
5.547533957248925
5.3660158509970755
5.186374174056727
5.007726482016331
4.82903962669788
4.6491527778778154
4.466907870501516
4.281834749903449
4.093197087402913
3.9005170153452333
3.7036435827378784
3.5028704688481334
3.297836368015212
3.0890311721365755
2.877272805573437
2.6627910941166584
2.4461566051229737
2.227788634431885
2.007834222019809
1.786821778067972
1.5649174846904557
1.3422796197379872
1.1190919000436026
0.8955422550368232
0.671615625824612
0.4471942794360613
0.22260178489313565
0.0
0.0
0.0
0.0
0.0
0.0
0.0
0.0
0.0
0.0
0.0
0.0
0.0
0.0
0.0
0.0
0.0
0.0
0.0
0.0
0.0
0.0
0.0
0.0
0.0
0.0
0.0
0.0
0.0
0.0
0.0
0.0
0.0
0.0
0.0
0.0
0.0
0.0
0.0
0.0
0.0
0.0
0.0
0.0
0.0
0.0
0.0
0.0
0.0
0.0
0.0
0.0
0.0
0.0
0.0
0.0
0.0
0.0
0.0
0.0
0.0
0.0
0.0
0.0
0.0
0.0
0.0
0.0
0.0
0.0
0.0
0.0
0.0
0.0
0.0
0.0
0.0
0.0
0.0
0.0
0.0
0.0
0.0
0.0
0.0
0.0
0.0
0.0
0.0
0.0
0.0
0.0
0.0
0.0
0.0
0.0
0.0
0.0
0.0
0.0
0.0
0.0
0.0
0.0
0.0
0.0
0.0
0.0
0.0
0.0
0.0
0.0
0.0
0.0
0.0
0.0
0.0
0.0
0.0
0.0
0.0
0.0
0.0
0.0
0.0
0.0
0.0
0.0
0.0
0.0
0.0
0.0
0.0
0.0
0.0
0.0
0.0
0.0
0.0
0.0
0.0
0.0
0.0
0.0
0.0
0.0
0.0
5.0
5.0
5.0
5.0
5.0
5.0
5.0
5.0
5.0
5.0
5.0
5.0
5.0
5.0
5.0
5.0
5.0
5.0
5.0
5.0
5.0
5.0
5.0
5.0
5.0
5.0
5.0
5.0
5.0
5.0
5.0
5.0
5.0
5.0
5.0
5.0
5.0
5.0
5.0
5.0
5.0
5.0
5.0
4.6382615338154505
5.126580008710996
4.010277712624537
6.5039700188218585
3.0354918614457915
6.5752478099083245
5.038720917568504
5.078029282878556
2.5159388611361546
7.329736336296328
3.4648616232491904
6.819698469692489
6.144701508693452
5.007782502419859
4.84491735293868
3.6736648985747085
3.1269282306607553
3.4331824687520105
3.774431973045899
6.541126680703856
5.762946909213927
6.487209461533707
3.2154990868053255
7.27587225929797
6.930485412030284
4.822691988520065
5.709745758937705
3.8480407011219193
6.024384965006734
2.8196369471987714
2.337953665721203
7.257246649687135
4.182771744416353
2.849697206155302
7.189107179116566
7.38455936337025
2.575034279984242
7.736558655618951
4.609682954953126
5.016015237399316
5.040448718411256
4.35896101646206
5.871755270066804
2.099746461286662
2.055486660994992
7.929994054731274
8.179945376594308
4.948115578893178
5.029865959643394
5.024139831261785
7.98116632421145
5.926558698233771
1.686632063238011
8.16547840817358
1.6950544466185204
8.379849317697765
4.119814499138365
5.348317076747361
1.639508561356588
8.111926774020468
4.441624845889126
4.3570782657915545
1.8032042282026384
5.267212141306373
1.906989553218699
2.025587426733671
6.121022160997629
7.992460084829106
1.9486467515262633
2.4902922752135193
8.188038568931681
1.7082289930332941
3.4058533537400244
8.102080906615948
1.9206767155553433
8.088618832806054
6.08817577652227
4.679982017940035
1.8454898173207694
3.9963555880407142
8.169243467631226
1.7478508725799016
4.374068091023354
5.385283314088454
5.012716844972324
5.17736881512818
4.05611469872541
4.602729431511357
8.28764077041614
6.50876504862016
4.887577572626802
5.894753903538791
5.457538639760584
3.8025980916905744
3.9113662963975235
6.001483668459845
6.29222332651066
5.643518400118351
2.7068418760920894
8.514117486005327
4.8860951136781114
5.474702219503242
7.0087412397727045
3.11561462644884
3.9335723812628864
8.55532900852169
6.94347340005951
4.495090615455526
5.477562077941461
5.459690091269574
3.008674400785306
5.773950339532098
3.2151587245604287
1.2737520153476143
2.9825882905346983
6.526967190552585
8.662422942804035
3.935408876389386
4.795723848664369
5.749267239537614
6.543450234556273
8.648850085650894
4.76331219482428
1.4832221853491512
6.212790981814416
3.233857578481533
5.892630169231748
6.521179225715928
4.614366822649703
3.6087010514973894
7.012525079822305
1.4526721378105223
8.728533607273768
5.361222886108308
8.568710768509275
7.242328931278775
4.501511483338658
1.2599313788851674
1.2237645553303542
5.9625396303376155
3.495377445798641
4.159243158124169
8.534620602870962
5.312722673845729
6.757056853982451
3.200080831616824
4.8838164781497655
5.001997865027945
8.810889231694263
1.3139537212692076
8.665583877611981
1.3341783086915926
2.4366276082691116
1.1856963964571425
7.772616488523161
8.653856236620461
6.948881456385444
1.3109948428531721
8.744182344574984
8.796021659986794
4.735033664444173
4.336128370674051
7.549950537079446
6.062775804464326
3.005408052176119
4.976063726470834
1.142210950685756
3.614933228231097
4.9986948222556595
8.842991413700803
1.2408533542295306
3.303009941461038
1.2862447529020908
6.235794539698883
4.995261610865632
2.876901778195116
4.729758851459387
3.0720773565417505
7.086972057383317
7.260839234838035
6.977399440678551
1.2609975333953312
4.787375787890151
1.0940431913886088
5.392715426308396
4.964159342584558
5.0232810279136215
6.400500381010489
2.9053094475580283
2.2736084925232296
5.941379000629818
4.456516224453341
6.927158375596575
8.760593511588779
8.929257015377956
4.411922067296799
3.921071061813625
5.103264550779491
2.107645390885026
6.870080266421451
1.7999393356204743
4.961146538748142
7.597688834654859
8.79820238074375
1.0632758571345462
5.74617638828085
8.187210754384461
7.47944314587874
1.9876248900047808
1.2013743237296117
1.2347846955984771
7.848764339468041
3.805900938624832
5.690953757716772
5.87138426100476
5.054013213367648
4.333768048306931
8.826062506909937
1.1174266727512363
3.1379834229138495
4.567569905705485
4.115684447770351
3.8814540240353965
4.788990656607219
4.260900421074813
2.391738481510127
4.8650017762216
1.1088748614208972
5.634896884314801
8.828615137386743
5.147705649909686
2.4662582706227583
2.7547211627121158
8.953742585589152
5.561643945910178
2.559543753680016
5.7056594236016585
7.1286457460395445
3.184659811590409
7.344040377118865
4.75106505491905
2.107041013738777
6.73620841189207
5.624097336305485
8.920700121144321
3.7380782488297077
2.687038816929244
2.2350597152775094
3.2194882205221718
7.581992467570294
7.459554813282116
6.330747723708187
4.685960699236475
1.0267501232873792
7.608110665287844
5.115703810036333
6.208413208096911
3.617454724221838
7.407278921504479
0.944531915022541
3.687628952339807
3.030152892135768
9.067464568508827
7.313481884219761
9.063296390260087
9.101427505716456
4.239013925048218
5.011379316785803
5.147590527183971
6.829341101733542
5.281035203342305
4.402779178843745
2.7278530630432036
7.835761347637351
9.049502330182174
0.8874715370845496
3.520837490195741
1.0486617954486437
9.033082421953795
6.4660243125384715
0.90458098302613
4.380649649398601
4.009255950147721
3.1596259046029482
2.156531469322231
4.97013337603835
5.386460740138869
4.670605506739695
8.926371435731198
3.1794393888807364
7.818775084242938
5.476299706552889
6.894390926114565
4.782047588656324
4.959511308149351
2.336453577598629
5.434001261879502
8.997076139045108
5.697971563577174
2.5616930905135447
7.447595799589073
2.1858281215478637
5.341529607072988
7.007419937646686
2.6298717470462782
4.190335057967801
4.969386945124465
3.797368674466975
1.952015137712625
0.8670886115430401
7.817693460856807
7.846458498835724
6.436424534435821
6.604460795985736
2.9265530621954907
6.0680880328581805
5.260994894915685
3.8823039400744905
9.122021741445657
4.457499287244156
0.9135233501756366
0.960593341989307
9.016913276166147
8.977376865719584
1.035649757953002
6.390217340213919
2.578604020425373
2.3525671756834194
8.073329826183398
7.724278830380143
7.080746120592807
2.3864519232841874
6.090976119989679
3.2527425023840335
5.138082930699555
0.9662647485170657
7.62645123322925
8.112940779064747
6.387288242262196
0.8294471383587191
4.669564800511568
0.9543665690440932
4.107023857505382
0.9464910478465575
0.8356169722967923
3.502759199115498
9.021222515500984
4.15513758179691
5.702448809567783
5.331028496507925
5.942511805401965
5.353379402948759
5.336452435775441
9.174740894541111
2.1904937229908787
5.046273660906145
2.0359066321642536
5.574402913914197
9.096572998966602
7.820065418314333
2.6971098839176664
0.9989583807568226
4.546287704990865
4.689700163589771
6.354024345468487
9.054003940485359
6.051150214117292
8.043769148216269
5.498230492150275
4.103607619658313
6.5869761210245965
3.950649298171756
3.999926514890124
5.1524335610845915
4.918349944729083
6.539062301425434
4.091658022633349
5.4005778798992665
3.844918866357211
6.410126335848665
4.4798024176384175
5.985892064506761
9.182990335630922
4.833828070153772
9.175458569716938
2.687340295732252
4.225089639857289
5.61893212709071
4.992471326265834
5.568180552830895
3.57200766262501
4.9616745934133375
4.832425428709729
7.1100338843480735
5.1966279038479835
5.220828497855946
5.558667349616776
7.914872448803294
5.845392704055091
6.933563704265217
3.954458995662665
3.7332214202065543
1.962084146397952
2.9737436711504075
3.8551099649465668
6.470079101366748
2.007429073677749
7.010332137531971
4.446388026114959
4.591181109862153
5.046743165570771
4.993021463195214
9.248158678822561
4.930726098494178
2.9101687870246082
5.503460862656563
6.567381391509359
3.0978470188488028
5.324266816814381
4.995240076869743
1.9572891830219419
6.447386738647639
7.963894372889486
0.6941712048167189
4.365409923226866
3.431302826592068
4.389468568719082
6.255805678869778
0.8423526532733349
8.200504088232089
7.414260411769319
4.22821418356881
4.909878490431803
8.338966776234058
4.188577192675702
9.270219556285799
8.086604081717113
3.578582304297846
2.396364886233624
6.601838142453351
0.7257532770374009
9.155991111079553
1.7729261417278066
2.8334482002212544
5.8721035412640745
8.012478707394783
5.306234789637377
5.012124216491714
3.091763199214558
8.109647560537537
6.579458575238474
6.739176968024442
2.9590738803820984
1.6075505502008052
7.111852762808881
3.618118789355366
0.7344860753250327
6.339841580991895
9.248722686556539
5.093170874971034
6.940383260439699
1.6626189840068768
2.647051154355567
2.751265760496922
6.992218173819134
0.6993689443391922
0.8030793379800596
5.00696731436058
0.7132740165620682
7.2048750591688275
2.6715529936593434
0.8132123186004419
7.2258130450641245
3.712401407152363
5.7802803029739795
7.897080184897176
5.076160970878186
5.03302235144176
3.7324266716258907
7.041982375578371
5.76438750710187
7.036472160279728
3.8175646251324427
4.534227621793007
9.198740702097643
4.990877286392842
7.758451921417425
6.821747527368736
3.529450375797281
3.0215274231868903
3.246940942886926
4.906856707946193
0.7889623721767358
1.7782770318964383
6.923915983808619
6.2762276408923485
2.2232860758086113
3.5863674486357136
8.471250413877208
2.234772573568648
4.701106211516147
7.5287395879088805
9.204388721575363
9.312211741313984
3.461903695029609
5.337130677542625
4.704689485473798
5.128640698868426
3.280685060497721
6.001843360678156
1.9835152212089602
1.7929608500513885
5.931624356021271
5.796799521671636
0.6708275977543824
0.7348577703541731
9.252849472672311
9.262257408109837
5.365788255659646
7.2726687432490325
1.4966663811482965
5.00180476123772
9.280765545735852
3.101687490680601
6.361325171051239
9.272950049520198
9.337499152402602
5.083000712803173
4.566793624663109
5.121002217431008
4.779584096593136
4.412052009631895
2.5963545783988327
5.485726120888525
5.810094281151884
1.7830780272387297
1.4370445623375723
5.105677971776358
1.934348312723634
3.4375918097115186
8.347769879249313
4.869459405763004
0.7473394992109014
8.448733599449803
5.787427318867897
8.244038412714328
4.666217821930509
5.261403319036408
9.311271891631252
0.6594633131381112
4.088987898947473
4.97898626210772
4.685939610650336
7.117041854023261
6.299381808058773
5.001132556995942
1.577433622572856
8.223060002681388
0.6464238747205628
3.5285959318660978
4.48507787853015
7.66212695480202
7.895556313273208
5.276284123519418
5.855906839611197
4.825111571726323
7.088077990747782
1.8739257016842887
4.399321005815407
1.8363883149160676
6.126323802928824
5.100045791479729
7.526522772502689
8.571438535200716
3.3636749387536926
3.370081298838269
2.942373713875808
9.328240764366397
7.401785712653309
3.5477435654180542
9.366068338230683
6.0253398440746695
0.6955498793614283
9.272086135369742
7.29318959737699
5.26862101003746
7.91687169135185
3.8368978912954272
5.484199856809187
5.122267770957922
5.026960462984771
9.360090776716364
4.416688864611853
6.408284246465061
3.648522793413893
6.117494801854132
3.434645778255995
8.121244740350432
1.8869702374216688
6.017756707821195
2.256486054961766
5.0017591264068395
1.7321641282622136
5.573069165439387
1.894910960862787
5.129836686259723
8.339749686029704
0.684865856942803
4.095740703350445
0.6948667339003479
8.094723776469834
0.6107880012925382
9.329855780842614
6.861915206189794
8.184127281153367
9.304774674980278
1.5653727792626695
5.493705592399178
7.27624459855688
1.9536992472910137
8.316906095898666
6.259787744083075
8.15154636893882
2.54345435645606
1.5766568488618498
0.6901047180698546
4.062970538998101
6.34106043671407
4.375736634957
3.9515743841150806
7.436167282417355
4.761548906446818
0.6132143649432985
2.9426339828738497
5.005756874261693
9.273330425796125
0.6295460059730346
0.7001242367393128
2.2604234489434747
8.550762005430308
0.7053558083043178
8.1528980062828
0.6439779588221661
3.3951746708947574
6.90435458045386
1.7961337939095803
9.300790153957008
1.7295411193208232
1.844655950962149
9.379238113226833
9.34518047533017
4.856072716959951
3.4911828451844507
6.506504613570817
7.704673570981026
9.302605801663269
7.478013699343971
1.575930788560681
4.495252933841439
1.7248897904081455
4.986707106856958
3.8720338782774766
2.627197992486072
4.147274523843262
2.5193849128683152
2.575252107109132
9.333283600107473
5.618264334738821
3.283749533949255
0.639416851794664
1.9953571725223271
5.00198280949165
4.239305965493661
4.339950752373143
4.973936935140569
4.940581582049526
8.049978302839147
5.774885735596131
8.226996600776472
5.154593060869493
4.176576931916745
6.497708422256492
4.574954959163742
7.010958060596941
0.5959453223880379
1.571535675538087
4.487322591166074
0.6744486335812652
3.927412140085638
8.309554526269798
4.3955389757075025
3.0120298267332863
2.8509133133263203
7.709055623144206
5.10181785028256
7.542992656416738
5.087765489516877
2.25380971278535
8.437800240759728
2.502549861916659
1.4673760739859776
4.74128632715572
9.379483930838655
5.030539074930144
1.2913415295924893
6.331264476923948
3.2685674711246175
9.377583251482967
8.454152916906876
8.580304538865171
3.5140277436329654
7.5452263601445155
7.428055482432087
0.6776356872956748
1.2973649241462837
4.633061340096724
7.587270429970008
5.496044297090707
8.677785586097457
5.09251218712532
1.7415666534969334
9.41929735326681
1.7834808248924388
6.000108167405087
8.558997724802278
7.682636755916674
3.9444158722153224
6.443282945163603
5.144991999491793
2.829874558241248
6.524587967958169
4.791268484214206
1.667626181651349
6.555137618254238
5.85551865204247
8.096355099392078
6.098692715425715
2.453828817120809
6.417465701488091
6.553997888518741
6.888839386443155
8.5309567694229
5.019639221451589
2.314576865943837
3.067436346516437
2.576756594706514
3.932736166570871
0.6691766765655583
7.293420386574793
1.4810556145464817
5.118496028043279
0.6108887957526012
8.585727615942288
2.1481148713527265
4.555957952114153
7.524490617572123
4.272745173696897
2.9059302206440503
8.548630767744049
4.540459407622354
7.072105173749777
5.847155494618363
4.105377669799969
0.6546574541134978
6.724609909038901
2.198972602290851
5.455798116297999
8.553425012803228
7.602847332885517
5.449154725197341
8.643941089993403
4.161583843418313
5.723994575188379
4.20688506685419
1.4796246132109623
5.304451788257445
7.92841460711103
7.78707963029948
2.8346832722011785
4.998556184404217
5.078536872837813
6.137745700782275
3.4056825055284823
5.671897700822236
2.3879705973616443
1.3805260756649165
3.4806066206628983
6.51608396606709
4.748477790580754
4.711537728182103
4.4280019780665025
4.56109161713312
2.29342344490058
6.919222469017696
3.4135367907370378
5.013348247583894
6.579673792222376
5.594640515026426
3.8785046464976562
5.727437282585529
5.2917700923565745
8.254198293224379
8.639006878872177
0.604917771422196
1.759600741877894
3.504940211355539
0.5705943039632397
9.35108064070823
1.1954104556864913
7.364587933864041
1.3662462726282085
6.670005300641412
2.2855437210999914
3.382019756330837
3.504624840191724
6.101216486368925
0.6451122238807154
8.679676014670939
5.007605409983919
1.40307414504495
8.588542781097566
4.966663391060831
4.0335526121194984
2.017174904415462
7.238387306491282
8.447712346129528
4.9845145236239325
6.025414346632851
6.024369287263181
7.01882928636758
9.436202205034991
5.337280878524425
7.732384414500814
0.6072110770053358
8.65365004761728
7.5752651506679705
6.625315863794569
7.1163916432393615
3.141251508130318
2.2015328952665993
2.5310288947927257
7.823953695575048
4.3115505213396546
2.3897680943891806
3.03409045370814
5.948450126725314
8.723265084466885
3.0038667060541826
9.445145946719926
2.4553567193376717
4.863783445599156
7.398021063552155
7.117337028687667
1.2786502142449099
5.5945317197662945
9.366415003823125
6.527572091399332
7.808610469668835
8.68795538570443
4.7237469364080455
6.065251328100597
4.474807456387375
3.9606148469589857
5.642169804307387
2.08995432270223
2.61087642961001
4.17280161592398
6.72444751981322
3.7497298324779265
3.9624489088955346
1.1678290862219933
5.107497651882125
2.6673575320111924
9.4595277939278
5.142769052945129
6.2073524644948215
2.3112407102039327
7.630486933523777
5.088296423789686
4.528409355540442
4.011272440146523
6.319534129788879
4.805783476913729
4.979984172279388
9.477218183766608
5.624750218883233
4.838471648400161
4.7204682747906155
6.62528270132574
7.0047994676078735
5.115252832507821
5.489552684065239
6.9916555797811455
4.9801113051989185
0.5702814552241413
6.0140854879093535
7.337363874079595
7.544788054047534
3.5515576906885666
5.7607011064340945
4.666896785271218
1.2247682071039474
9.428108777745594
9.451992317232573
2.4523284004646095
1.343073281280189
2.7844483337323296
5.466639651640903
4.719351551224289
6.2615823691016566
7.670955546573904
8.68544167981185
5.273111143138481
5.135783908874578
5.023309716933961
3.6768900043390498
5.603625074956103
7.433249277432356