# vtk DataFile Version 1.0
2D Simulation C++
ASCII
DATASET UNSTRUCTURED_GRID
FIELD FieldData 1
NODES 1 2 int
5263 10228

POINTS 5263 double
0.0 0.0 0.0
0.0 10.0 0.0
32.5 10.0 0.0
32.5 0.0 0.0
0.0 0.2777777777775621 0.0
0.0 0.5555555555550333 0.0
0.0 0.8333333333325879 0.0
0.0 1.111111111110222 0.0
0.0 1.388888888887397 0.0
0.0 1.666666666664326 0.0
0.0 1.94444444444142 0.0
0.0 2.222222222218399 0.0
0.0 2.499999999995369 0.0
0.0 2.777777777772469 0.0
0.0 3.05555555554943 0.0
0.0 3.333333333326265 0.0
0.0 3.611111111103734 0.0
0.0 3.888888888881239 0.0
0.0 4.166666666658785 0.0
0.0 4.444444444436001 0.0
0.0 4.72222222221346 0.0
0.0 4.999999999990805 0.0
0.0 5.277777777770157 0.0
0.0 5.555555555548802 0.0
0.0 5.833333333326904 0.0
0.0 6.111111111105201 0.0
0.0 6.388888888883227 0.0
0.0 6.6666666666616 0.0
0.0 6.944444444439821 0.0
0.0 7.222222222218041 0.0
0.0 7.499999999996065 0.0
0.0 7.777777777774401 0.0
0.0 8.055555555552267 0.0
0.0 8.33333333333024 0.0
0.0 8.611111111108766 0.0
0.0 8.8888888888872 0.0
0.0 9.166666666665327 0.0
0.0 9.444444444443382 0.0
0.0 9.722222222221832 0.0
0.2901785714286179 10.0 0.0
0.5803571428572408 10.0 0.0
0.870535714285872 10.0 0.0
1.160714285714453 10.0 0.0
1.45089285714304 10.0 0.0
1.741071428571626 10.0 0.0
2.031250000000163 10.0 0.0
2.321428571428898 10.0 0.0
2.611607142857762 10.0 0.0
2.901785714286645 10.0 0.0
3.19196428571558 10.0 0.0
3.482142857144515 10.0 0.0
3.772321428573429 10.0 0.0
4.062500000002321 10.0 0.0
4.35267857143071 10.0 0.0
4.642857142859164 10.0 0.0
4.933035714287619 10.0 0.0
5.223214285716239 10.0 0.0
5.513392857144762 10.0 0.0
5.803571428573196 10.0 0.0
6.093750000001705 10.0 0.0
6.383928571430213 10.0 0.0
6.674107142858722 10.0 0.0
6.96428571428723 10.0 0.0
7.254464285715611 10.0 0.0
7.544642857144177 10.0 0.0
7.834821428572724 10.0 0.0
8.125000000001261 10.0 0.0
8.41517857142979 10.0 0.0
8.705357142858364 10.0 0.0
8.99553571428664 10.0 0.0
9.285714285715294 10.0 0.0
9.575892857143737 10.0 0.0
9.866071428572344 10.0 0.0
10.15625000000081 10.0 0.0
10.44642857142933 10.0 0.0
10.73660714285784 10.0 0.0
11.02678571428634 10.0 0.0
11.31696428571485 10.0 0.0
11.60714285714336 10.0 0.0
11.8973214285719 10.0 0.0
12.18750000000038 10.0 0.0
12.47767857142888 10.0 0.0
12.76785714285739 10.0 0.0
13.05803571428599 10.0 0.0
13.34821428571463 10.0 0.0
13.63839285714299 10.0 0.0
13.92857142857143 10.0 0.0
14.21874999999993 10.0 0.0
14.50892857142844 10.0 0.0
14.79910714285692 10.0 0.0
15.08928571428546 10.0 0.0
15.37946428571392 10.0 0.0
15.66964285714237 10.0 0.0
15.9598214285709 10.0 0.0
16.24999999999949 10.0 0.0
16.540178571428 10.0 0.0
16.83035714285651 10.0 0.0
17.12053571428502 10.0 0.0
17.41071428571352 10.0 0.0
17.70089285714209 10.0 0.0
17.99107142857054 10.0 0.0
18.2812499999991 10.0 0.0
18.57142857142756 10.0 0.0
18.86160714285606 10.0 0.0
19.15178571428445 10.0 0.0
19.44196428571318 10.0 0.0
19.73214285714159 10.0 0.0
20.02232142857009 10.0 0.0
20.3124999999986 10.0 0.0
20.6026785714271 10.0 0.0
20.89285714285561 10.0 0.0
21.18303571428414 10.0 0.0
21.47321428571273 10.0 0.0
21.76339285714125 10.0 0.0
22.05357142856963 10.0 0.0
22.34374999999821 10.0 0.0
22.63392857142652 10.0 0.0
22.92410714285527 10.0 0.0
23.21428571428365 10.0 0.0
23.50446428571216 10.0 0.0
23.79464285714066 10.0 0.0
24.08482142856917 10.0 0.0
24.37499999999768 10.0 0.0
24.66517857142606 10.0 0.0
24.95535714285469 10.0 0.0
25.24553571428331 10.0 0.0
25.5357142857117 10.0 0.0
25.8258928571402 10.0 0.0
26.11607142856871 10.0 0.0
26.4062499999971 10.0 0.0
26.69642857142572 10.0 0.0
26.9866071428542 10.0 0.0
27.27678571428296 10.0 0.0
27.5669642857113 10.0 0.0
27.85714285713974 10.0 0.0
28.14732142856836 10.0 0.0
28.43749999999675 10.0 0.0
28.72767857142526 10.0 0.0
29.01785714285377 10.0 0.0
29.30803571428227 10.0 0.0
29.59821428571078 10.0 0.0
29.88839285713928 10.0 0.0
30.17857142856779 10.0 0.0
30.46874999999629 10.0 0.0
30.7589285714248 10.0 0.0
31.04910714285331 10.0 0.0
31.33928571428181 10.0 0.0
31.62946428571097 10.0 0.0
31.91964285714029 10.0 0.0
32.20982142857067 10.0 0.0
32.5 9.72222222222167 0.0
32.5 9.44444444444426 0.0
32.5 9.166666666666849 0.0
32.5 8.888888888888888 0.0
32.5 8.611111111111168 0.0
32.5 8.33333333333353 0.0
32.5 8.05555555555574 0.0
32.5 7.777777777777773 0.0
32.5 7.499999999999822 0.0
32.5 7.222222222221776 0.0
32.5 6.944444444444329 0.0
32.5 6.666666666666663 0.0
32.5 6.38888888888915 0.0
32.5 6.111111111111107 0.0
32.5 5.833333333333337 0.0
32.5 5.555555555555552 0.0
32.5 5.277777777778586 0.0
32.5 5.000000000001511 0.0
32.5 4.722222222222885 0.0
32.5 4.444444444444442 0.0
32.5 4.166666666666642 0.0
32.5 3.888888888888843 0.0
32.5 3.611111111111247 0.0
32.5 3.33333333333333 0.0
32.5 3.055555555555895 0.0
32.5 2.777777777778137 0.0
32.5 2.500000000000071 0.0
32.5 2.22222222222222 0.0
32.5 1.944444444444404 0.0
32.5 1.666666666666591 0.0
32.5 1.388888888888623 0.0
32.5 1.111111111111109 0.0
32.5 0.8333333333335844 0.0
32.5 0.5555555555562428 0.0
32.5 0.2777777777777732 0.0
32.20982142857046 0.0 0.0
31.91964285714092 0.0 0.0
31.62946428571139 0.0 0.0
31.33928571428185 0.0 0.0
31.04910714285335 0.0 0.0
30.75892857142485 0.0 0.0
30.46874999999635 0.0 0.0
30.17857142856786 0.0 0.0
29.88839285713969 0.0 0.0
29.59821428571153 0.0 0.0
29.30803571428259 0.0 0.0
29.01785714285387 0.0 0.0
28.72767857142527 0.0 0.0
28.4374999999967 0.0 0.0
28.14732142856829 0.0 0.0
27.85714285713988 0.0 0.0
27.56696428571144 0.0 0.0
27.27678571428261 0.0 0.0
26.98660714285413 0.0 0.0
26.69642857142588 0.0 0.0
26.40624999999744 0.0 0.0
26.11607142856882 0.0 0.0
25.82589285714024 0.0 0.0
25.53571428571189 0.0 0.0
25.24553571428335 0.0 0.0
24.9553571428549 0.0 0.0
24.66517857142662 0.0 0.0
24.3749999999979 0.0 0.0
24.08482142856931 0.0 0.0
23.79464285714073 0.0 0.0
23.50446428571242 0.0 0.0
23.21428571428391 0.0 0.0
22.92410714285526 0.0 0.0
22.63392857142696 0.0 0.0
22.34374999999826 0.0 0.0
22.05357142856991 0.0 0.0
21.76339285714106 0.0 0.0
21.47321428571247 0.0 0.0
21.18303571428397 0.0 0.0
20.89285714285592 0.0 0.0
20.60267857142753 0.0 0.0
20.31249999999914 0.0 0.0
20.02232142857049 0.0 0.0
19.73214285714193 0.0 0.0
19.44196428571328 0.0 0.0
19.15178571428464 0.0 0.0
18.86160714285617 0.0 0.0
18.57142857142794 0.0 0.0
18.28124999999935 0.0 0.0
17.99107142857082 0.0 0.0
17.70089285714263 0.0 0.0
17.41071428571394 0.0 0.0
17.12053571428555 0.0 0.0
16.83035714285716 0.0 0.0
16.54017857142843 0.0 0.0
16.24999999999995 0.0 0.0
15.95982142857142 0.0 0.0
15.66964285714289 0.0 0.0
15.37946428571443 0.0 0.0
15.08928571428596 0.0 0.0
14.79910714285729 0.0 0.0
14.50892857142873 0.0 0.0
14.21875000000035 0.0 0.0
13.92857142857197 0.0 0.0
13.63839285714359 0.0 0.0
13.34821428571497 0.0 0.0
13.05803571428647 0.0 0.0
12.76785714285797 0.0 0.0
12.47767857142936 0.0 0.0
12.18750000000086 0.0 0.0
11.89732142857243 0.0 0.0
11.60714285714399 0.0 0.0
11.31696428571526 0.0 0.0
11.02678571428658 0.0 0.0
10.7366071428583 0.0 0.0
10.44642857143001 0.0 0.0
10.15625000000162 0.0 0.0
9.866071428573235 0.0 0.0
9.57589285714463 0.0 0.0
9.285714285716029 0.0 0.0
8.995535714287595 0.0 0.0
8.70535714285916 0.0 0.0
8.415178571430538 0.0 0.0
8.125000000002046 0.0 0.0
7.834821428573715 0.0 0.0
7.544642857144936 0.0 0.0
7.254464285716587 0.0 0.0
6.964285714288064 0.0 0.0
6.674107142859494 0.0 0.0
6.383928571431138 0.0 0.0
6.093750000002618 0.0 0.0
5.803571428574081 0.0 0.0
5.513392857145551 0.0 0.0
5.223214285717315 0.0 0.0
4.933035714288824 0.0 0.0
4.642857142860098 0.0 0.0
4.352678571431571 0.0 0.0
4.062500000002899 0.0 0.0
3.772321428574507 0.0 0.0
3.482142857146119 0.0 0.0
3.191964285717507 0.0 0.0
2.901785714289126 0.0 0.0
2.611607142860716 0.0 0.0
2.321428571432136 0.0 0.0
2.031250000003791 0.0 0.0
1.741071428575314 0.0 0.0
1.450892857146492 0.0 0.0
1.160714285718146 0.0 0.0
0.870535714289062 0.0 0.0
0.5803571428599774 0.0 0.0
0.2901785714298697 0.0 0.0
27.51320705008116 4.997729336326708 0.0
4.997347673551522 4.91110637319292 0.0
21.01726965123028 5.017439377823358 0.0
10.88169642857243 4.999999999999996 0.0
16.05114187710122 5.049286609102118 0.0
24.29033933436667 6.48182591825603 0.0
7.91931246726004 3.321575241322854 0.0
7.941419857081122 6.725986338760977 0.0
24.78210505975996 3.247777263469293 0.0
13.49491488305089 6.817431779394528 0.0
13.4405528606395 3.169001599614139 0.0
18.5000682132318 3.113265516957635 0.0
18.5662800601718 6.836888215070788 0.0
29.58661901370199 2.916666666667016 0.0
29.57812779575337 7.039980203986841 0.0
2.907382919568568 7.102566567001475 0.0
2.843238117897735 2.870684308540216 0.0
22.20023075928133 2.633030709296135 0.0
21.86554754013057 7.374050596643626 0.0
26.692455406597 7.415772420157579 0.0
5.603823022270493 7.518868707147132 0.0
10.33114942687441 2.528981271990919 0.0
5.520227668323024 2.540626670921983 0.0
10.30552517385705 7.415696670054861 0.0
15.8739878065805 7.498068168543599 0.0
15.87398780658051 2.501931831456393 0.0
27.13029258810021 2.471206473436125 0.0
30.28790471030542 5.006368575176645 0.0
2.201577241259169 4.999999999996662 0.0
23.16099130749301 4.654118858668728 0.0
20.21593238003482 2.086694516451829 0.0
19.18729808361482 5.003598370849078 0.0
6.969081298929138 5.033401437934727 0.0
12.80662443879375 4.992217645602042 0.0
25.56295759043947 5.024387800401017 0.0
20.02680966060827 8.06981797664621 0.0
8.928680570448718 4.989609742326659 0.0
12.06320267366725 1.926221997152253 0.0
12.08352559077705 8.083708264530099 0.0
23.60369409653637 8.139246898369139 0.0
28.23309900140055 8.168238179034079 0.0
23.75877264407258 1.793430758986444 0.0
7.129272819075196 1.758797684284025 0.0
7.162079837523924 8.263400895807024 0.0
17.46143018717863 1.719350873531246 0.0
17.47400505080263 8.302494436881904 0.0
1.708947443217708 8.292127264643156 0.0
30.7533202584035 8.290841528991844 0.0
30.8321380874956 1.747024052819609 0.0
1.708578458609358 1.707732120401483 0.0
25.5804999316956 1.695016076281171 0.0
8.856208860222237 8.313067217179258 0.0
[...]
POINT_DATA 5263
SCALARS Psi double
LOOKUP_TABLE default
0.0
10.0
10.0
0.0
0.2777777777775621
0.5555555555550333
0.8333333333325879
1.111111111110222
1.388888888887397
1.666666666664326
1.94444444444142
2.222222222218399
2.499999999995369
2.777777777772469
3.05555555554943
3.333333333326265
3.611111111103734
3.888888888881239
4.166666666658785
4.444444444436001
4.72222222221346
4.999999999990805
5.277777777770157
5.555555555548802
5.833333333326904
6.111111111105201
6.388888888883227
6.6666666666616
6.944444444439821
7.222222222218041
7.499999999996065
7.777777777774401
8.055555555552267
8.33333333333024
8.611111111108766
8.8888888888872
9.166666666665327
9.444444444443382
9.722222222221832
10.0
10.0
10.0
10.0
10.0
10.0
10.0
10.0
10.0
10.0
10.0
10.0
10.0
10.0
10.0
10.0
10.0
10.0
10.0
10.0
10.0
10.0
10.0
10.0
10.0
10.0
10.0
10.0
10.0
10.0
10.0
10.0
10.0
10.0
10.0
10.0
10.0
10.0
10.0
10.0
10.0
10.0
10.0
10.0
10.0
10.0
10.0
10.0
10.0
10.0
10.0
10.0
10.0
10.0
10.0
10.0
10.0
10.0
10.0
10.0
10.0
10.0
10.0
10.0
10.0
10.0
10.0
10.0
10.0
10.0
10.0
10.0
10.0
10.0
10.0
10.0
10.0
10.0
10.0
10.0
10.0
10.0
10.0
10.0
10.0
10.0
10.0
10.0
10.0
10.0
10.0
10.0
10.0
10.0
10.0
10.0
10.0
10.0
10.0
10.0
10.0
10.0
10.0
10.0
10.0
10.0
10.0
10.0
10.0
10.0
10.0
9.72222222222167
9.44444444444426
9.166666666666849
8.888888888888888
8.611111111111168
8.33333333333353
8.05555555555574
7.777777777777773
7.499999999999822
7.222222222221776
6.944444444444329
6.666666666666663
6.38888888888915
6.111111111111107
5.833333333333337
5.555555555555552
5.277777777778586
5.000000000001511
4.722222222222885
4.444444444444442
4.166666666666642
3.888888888888843
3.611111111111247
3.33333333333333
3.055555555555895
2.777777777778137
2.500000000000071
2.22222222222222
1.944444444444404
1.666666666666591
1.388888888888623
1.111111111111109
0.8333333333335844
0.5555555555562428
0.2777777777777732
0.0
0.0
0.0
0.0
0.0
0.0
0.0
0.0
0.0
0.0
0.0
0.0
0.0
0.0
0.0
0.0
0.0
0.0
0.0
0.0
0.0
0.0
0.0
0.0
0.0
0.0
0.0
0.0
0.0
0.0
0.0
0.0
0.0
0.0
0.0
0.0
0.0
0.0
0.0
0.0
0.0
0.0
0.0
0.0
0.0
0.0
0.0
0.0
0.0
0.0
0.0
0.0
0.0
0.0
0.0
0.0
0.0
0.0
0.0
0.0
0.0
0.0
0.0
0.0
0.0
0.0
0.0
0.0
0.0
0.0
0.0
0.0
0.0
0.0
0.0
0.0
0.0
0.0
0.0
0.0
0.0
0.0
0.0
0.0
0.0
0.0
0.0
0.0
0.0
0.0
0.0
0.0
0.0
0.0
0.0
0.0
0.0
0.0
0.0
0.0
0.0
0.0
0.0
0.0
0.0
0.0
0.0
0.0
0.0
0.0
0.0
4.997729336326708
4.91110637319292
5.017439377823358
4.999999999999996
5.049286609102118
6.48182591825603
3.321575241322854
6.725986338760977
3.247777263469293
6.817431779394528
3.169001599614139
3.113265516957635
6.836888215070788
2.916666666667016
7.039980203986841
7.102566567001475
2.870684308540216
2.633030709296135
7.374050596643626
7.415772420157579
7.518868707147132
2.528981271990919
2.540626670921983
7.415696670054861
7.498068168543599
2.501931831456393
2.471206473436125
5.006368575176645
4.999999999996662
4.654118858668728
2.086694516451829
5.003598370849078
5.033401437934727
4.992217645602042
5.024387800401017
8.06981797664621
4.989609742326659
1.926221997152253
8.083708264530099
8.139246898369139
8.168238179034079
1.793430758986444
1.758797684284025
8.263400895807024
1.719350873531246
8.302494436881904
8.292127264643156
8.290841528991844
1.747024052819609
1.707732120401483
1.695016076281171
8.313067217179258
6.510929266421398
1.703910633522935
8.309573862736768
3.614887602552944
8.307773341606284
1.688323092033875
1.654651100273018
5.475779773859774
8.288328818214447
6.401592900454574
1.638214667922063
6.599209761962969
3.700718430948458
3.64957352465809
6.317492101929682
3.872131908627912
6.437440627473348
3.539623623646498
3.610456211878809
6.344460603981149
6.438565965868928
3.561547082266781
4.31487415319843
5.935562444353993
3.889951284592575
1.469747156497357
3.630816157435893
5.016791675046932
6.08384489231332
3.956579867950445
6.432976210007455
5.276365589801582
6.458348306756434
1.448115271019966
5.680214412449354
8.617146542362038
3.968555525331204
3.25725113205359
8.657045224721916
8.660668037679937
3.150442554580636
1.31371416514732
6.773200134002139
8.675044164009398
8.652359266834742
1.309606796905299
8.725785697749277
6.95940821838747
1.356134872957091
8.774835291404798
8.74502710037455
4.466068490637338
1.249423523596189
1.271579563820446
2.911928391236793
1.251888596328664
6.062155026117005
8.760973872435173
4.126489342009665
7.078090627967173
8.729224343065118
1.246419350807073
4.325394299275284
1.203238012760264
2.946145491445964
6.146560524074983
2.80948312776485
6.071132430477777
5.353104274105583
4.629925769103362
6.503939128831782
5.922843317270165
3.960323931877188
4.526489806956619
5.741707623051761
2.613039985723937
2.61183706402447
7.386960014274256
7.388162935973964
8.84023685143254
1.109311298807302
3.984723559220586
1.133055445478924
2.803169350084641
7.563853626736156
5.537635791986396
4.195408470440082
5.804591529559922
8.925593489091304
8.91201782496567
1.033693949937412
1.032278485786597
8.962531123558207
3.913392649341819
6.074360624896883
3.908009549056207
1.024291303650738
1.041152807098507
3.535589509656663
5.411900512723337
6.058390947219081
8.96336120038423
3.952812416892724
2.808688011401888
2.807431597887806
7.174418913170404
5.344021128293618
5.484923112172898
2.329177552125805
2.606956629081965
4.020351806707128
7.41086396411092
2.217957099633598
7.336654097667783
2.616787765361686
8.99271107370073
8.966817709870346
0.9864749686405249
1.029670635626064
7.705941959046882
7.20033070701988
8.978580941022152
6.158861696044043
2.809681368436499
7.190607751060849
1.010261810053126
2.634343891937267
7.32988302242711
3.446858850859991
4.778590208209379
7.34179049812465
7.383055171836103
4.397760657460756
5.602239342538848
9.047431012512863
6.580444742954636
4.958465996684271
7.319155721784909
7.437931728022939
7.772818819930304
4.830006218777701
2.148616795031205
0.9440453791254748
5.123930791349446
4.0126576900283
4.755010223460735
0.9046669160617344
9.043780805098754
7.408631199729196
2.580322335509543
7.408631199733465
2.591368800259921
4.502832389584135
7.795158240732455
5.890087988234159
2.253292274855556
9.072019471518962
9.084570988681211
4.48674702435063
9.06019383366945
9.07506099039085
5.634168321091461
0.9165427424724489
7.819330459160586
2.385681091564121
4.087680417487127
9.068382510778584
0.9115236295501232
2.026479671734025
5.984766728829182
0.8824366169659523
2.325244144405668
7.729682888626199
7.562523214634052
0.8948076093793877
9.117457473108564
4.549047943996484
0.8809598778219843
0.900937149235081
9.108850987456243
0.8877587799738759
2.086315407835955
0.8803671356981643
9.103061898833639
7.648188501878836
7.899847240549557
9.122770763103553
0.8741264442231071
5.450769837462516
2.348844182321351
9.12125492865441
2.343077623893191
6.465025525515893
4.140370484758916
1.936068298557453
5.606304485621855
8.013494010337858
6.530282351861291
4.508099950396386
2.002527222094695
9.133193251487143
0.8337006434828821
1.987347374505222
5.695233192499653
8.12921138319577
1.837357134641739
8.16205599888459
8.17044436206795
1.834498716191002
9.150941805063761
5.592578491559643
2.619960447112669
0.8361558343353233
3.912293621905807
4.187943719238798
4.902797678588755
3.407593200043557
9.1940572563419
7.874050836236966
7.355729165672853
5.794491038238194
5.781816012704533
3.453562426760941
6.901942318076561
6.07388449095115
3.92611550904912
2.233526990283313
6.790302504036977
5.141227696803483
3.485525502928806
3.571400095920402
6.452877779611573
5.558289767557191
3.070636831844565
3.339328460384522
6.664703021403557
6.799383621767309
7.224812982339428
3.180248370883993
3.716238469924413
5.060431085846539
3.5760551534495
5.83047575640983
2.791547142451681
8.219552967473533
3.292529426192222
6.750458632424796
4.817126540834351
1.697452708829607
1.85777981293351
4.369334541616708
5.64263802388932
1.745012399060357
7.971253727345403
8.073834240112843
6.631058499268303
5.584240161824733
8.249255986233148
0.8135267940046126
8.06504563357044
1.949182349698781
3.419257463288074
9.192079730808466
5.671964864462771
8.22567119351687
6.831100364008218
0.8005314952476574
1.907933571823505
9.22268604236199
4.280028262543233
2.526682678903645
5.35264735193212
3.145332761300204
6.695325234402844
6.873386862144176
6.756776732053736
7.098543166641378
3.229443721336652
2.900961029312247
4.89293505693555
3.087332459942557
3.252469092716864
3.314254044009193
0.7778473102504839
1.95121684377355
5.731642538089908
5.736433455128146
4.24972214961007
2.035371034676122
4.394759288452292
3.216566375144374
6.783433624855499
6.847024545066968
9.249929375139017
3.876223268934523
8.117823390870251
0.7528642907757317
4.389400434452861
2.104296515658957
1.891604829934386
4.927928461746223
4.522880713767941
8.164234068449199
8.14653622138831
8.183978272665092
8.13387714289501
4.106730276964493
9.262991459997124
6.257226248844454
8.223798803555077
6.54567414982669
0.7403864283243944
0.7056849055537963
9.28801703902182
5.576247499551231
1.610671377150863
7.112641502276148
4.71959667607998
6.518154740961115
0.7292269612166911
5.638713694755344
9.270657629182958
8.224572329561521
5.979637439409681
3.951665394028312
3.395307687195969
9.298048433693937
6.689412582686066
2.392806649844593
4.382378816117598
0.6752679941398194
7.612516358804785
0.7040821343501475
6.436033928560315
9.3380899133336
5.496298175437646
2.34606746694133
5.397046123168614
9.282849356789695
1.693268447147416
5.385214302002883
9.269887358563052
2.82650625359498
0.6835838441176013
4.110699150592772
4.481104173844433
6.610296341897843
0.7617252370910579
6.061887031660365
2.408191395627995
3.92588555449289
9.241512741083037
9.299549233360118
0.6132231862314587
4.352741328092893
8.413823760554365
2.923692223497347
1.82772017527113
4.601552277105025
4.029544671685792
1.746696861941391
1.68291149385165
9.346377917631427
5.822664915550749
6.220029870580507
0.6774459086290026
3.307110879752108
5.069970776104897
1.665118304314326
8.325999461930266
7.866959315196703
4.93573427623727
5.064265723762577
9.338953551303467
4.522712690659812
0.6527868567220931
7.463278181890074
1.781875181480073
6.463927921734102
9.328455991254778
0.6555911697957308
0.6286018147936538
3.5236905431292
8.004468266799053
4.498201442658949
3.729308645583702
0.6695819215862403
6.707259829059781
9.354397071720363
8.484431853544939
0.6616400434097699
9.350864371667369
5.860386932592687
1.555269819449991
3.561008812260442
2.332804094356027
4.648585397505591
4.243048411145011
8.349898653755528
7.614919517571831
5.978198953739828
0.6436831328313516
2.870523509654751
5.53969028263386
9.362724953208058
8.029984733207275
9.372370062375936
4.956732013015379
8.474054255815851
1.585796100077139
6.953918974308469
1.524734619045004
9.371235032637475
4.07655877380107
7.095575866568446
8.363218285932065
3.550919483897051
5.099256964254097
7.74480306499323
0.6268788492416373
3.505448566935331
1.558910638174716
8.333141674564668
0.6415844995039539
2.303478118763209
0.6286238089883566
4.870441434347422
3.356599037723325
0.6479995936545407
9.379951756263402
3.921836385521584
2.977748402263083
2.962576412248984
7.016842756869558
7.003309440585856
6.690628055874628
5.979172954518409
3.386318389994435
4.026358510968518
3.246361250802479
1.652304158707849
6.557278533403978
4.933780754034665
5.067166296049242
9.424560009615082
4.563274066352378
0.5802115217722529
3.926082043915138
6.073917956083713
2.656986526125891
2.931228833348461
0.6032259498228103
6.142420699200781
5.949883509957324
8.542873793981325
7.342162155609341
7.057799747261088
1.612587472288881
1.502683628669816
2.578584470837664
1.483321461479316
4.213613536876219
1.378204361799185
0.6190788457357297
7.089727396546996
8.40581075401023
9.419789810581637
1.614728220416809
4.560916004597527
7.72141084730733
8.610285531724415
2.355582236135612
2.372101471623632
7.644417763860656
7.627898528373247
8.665873309619235
5.377461100944172
2.503055210403413
7.391931717675566
7.292562792051214
5.538826184565782
4.441474239940615
5.545100834481869
9.40071433355187
8.007441422846428
4.526401331330415
0.5907436907349307
6.156132622582228
9.415688147644673
9.499319725733267
0.4918664609664042
0.5843118523533913
6.354102091693218
6.01759534068872
4.537199624383207
0.5924503475146335
4.598649084408419
7.184156127200243
4.501261535782477
0.5803213604025184
2.326325540805815
7.67346767031321
7.65363861625382
2.346266198660459
2.917228004245445
4.668647339926858
3.64536421715564
9.424966649490315
6.490570016245708
3.500304244267777
6.280326185527572
6.758215623475626
3.132350928752577
5.464814325491997
7.688158185436017
6.239377536547262
8.729021103917722
1.419346915342358
6.903197358177334
5.43893367843464
1.19553031899909
2.917260070437669
5.575250153047019
3.143477617809779
9.443951878055293
1.500442570938956
8.74299925898578
9.429120025896196
8.453757324976165
7.198912772114426
5.698223841576191
5.051563466750552
1.272943748312909
9.447831493850385
8.670746632491678
1.45886445586212
6.514662997172202
7.129927604499568
2.826797144457938
4.43296747030143
1.339995766249582
1.340017330942751
8.659899375666077
8.66000868943404
9.503726695824117
5.400923343604392
7.748925187547282
6.33721608252946
7.240200631620766
4.470726980358038
2.229339926492043
9.469451621716523
4.013635341286697
5.898538208444997
2.814469042864986
2.74904282821223
1.179495324822152
3.527876939673066
3.811085887379591
1.439504429933069
9.461320164782522
8.618092076307075
1.241210189560623
5.884342978955346
0.4966240898061435
8.559268366692812
1.258885439579147
9.443560523440349
2.240726569681284
7.514703538625342
8.740896790641546
7.522528665398704
2.480693257315716
1.477930392595745
7.671003947434401
2.482297293375987
3.953785685474845
7.768051134279773
5.180651044353185
6.571759091693536
6.110824687723582
3.146949731998506
7.556746076961735
0.5357298741773107
1.498787072812166
8.770029310505953
3.44355696528063
0.5573177204032285
2.413425195063684
3.412023362134328
3.330783896811245
7.879024327562528
8.819024326407085
1.177175153880589
6.938044657098905
1.766559300683534
2.229533267476393
6.986281294810824
8.538686545263188
2.140719276134353
2.939943586823191
7.060056413173822
7.860500162834818
5.97852766268278
1.282289315740515
2.132161867019074
2.318668247482035
2.686667379705794
8.536999815657143
4.982291485232818
6.892870148444707
1.211866084838866
4.951505731695612
8.787847228013437
3.003068047256662
0.4881313884167532
5.434332219975176
8.50854323331422
5.181458394110869
7.729819342427539
4.104992062887004
2.607502115001467
6.145408043443806
1.247499029014278
0.5268680329312165
9.48351334754289
8.730936393674227
3.807642612616738
1.211056013942293
5.500401155120256
6.144056935913182
7.784672097260151
7.903023074069522
8.793327118341796
4.556079358147946
6.792318285737461
3.535597589577951
0.4908592785539083
3.694995299789193
2.277215797756338
2.755565711257883
5.136582138359628
9.50989220242013
7.62057765237704
5.158731184679251
7.74969578690343
4.575408428784867
3.033596979432475
7.25115423525189
8.808237504215555
8.226977800523688
2.089574873187033
6.731517520093316
9.452819387416229
3.28521316657346
4.981034050000535
2.507419279354512
2.156592895189465
8.722072309826851
1.247352801355818
0.510999022197052
8.761763587308966
8.09152309477437
4.506667236355475
3.902784027007487
6.123080905855956
3.81916526604616
1.338804769018513
7.010459419994289
7.599340593100967
0.5439967047507098
6.134413224105768
3.110893596026532
8.523471783544817
9.489005187594529
1.159502273373095
2.737578018785108
1.993603208054108
5.022093829818536
5.937655850710376
3.187242274545969
7.387819984697515
0.4611482721517415
5.485796206189145
2.243937753967041
8.564166138266973
9.515296365351741
3.588649033476005
3.979073618844871
8.770298921981507
8.619404103110497
1.218828580356178
7.599688939401318
7.759657396766421
5.322805810195667
9.526751142595838
6.949281495982906
7.319746246756636
4.69641646339901
5.974089623985694
6.301531648369926
4.05990601204538
0.50228615035728
4.275084717655278
6.782515917931173
2.728805570010358
9.53253623018503
4.999902909902573
7.797712217676044
8.67715781403944
7.334950871022333
2.000590128861781
9.550744349430163
3.908916714010989
8.717302062050884
5.063065430357007
5.477216859710994
3.711127956286133
2.272834226456196
4.463107552012401
5.239304200145239
3.405569897928366
5.517106718724527
2.781826745480575
7.167915302916446
6.904313800985841
4.515763634395479
4.906644629335993
5.093355370663763
4.391475956269524
5.608524043729816
4.501441186750105
4.619067973486499
2.927321354608793
6.724917761351192
1.100150519879842
1.414954919293682
2.037132587708417
4.907774819398111
5.303925810203578
5.551102921506666
7.772682833883248
6.849432133056339
8.829587387905606
2.6799740643956
4.845104325722247
2.004441223867963
3.024311473938353
4.34029275111117
0.4749932574100185
6.692916383762855
3.303053918084224
2.520705736287351
4.059604358264574
9.545474716645018
7.553796853478947
3.628870718710417
5.818136629319568
2.637588114606
1.574403462811637
2.392583265601054
7.849971600789578
0.4786021552412863
0.4839464678561112
7.880176924844743
7.866133600973744
8.279536562341253
4.615394060082744
1.243517261980764
6.889209299192644
1.576062309944899
9.546958543438066
7.425563745566111
8.422411133867683
7.874961549511118
2.125083620404861
5.00960287525386
5.951689106422132
7.049041391359497
0.4580101918946274
7.659680723857102
2.404952491015302
9.528185030229972
1.694823381779047
1.20330900558884
1.428224747835562
5.619195845224727
0.4695819291931801
8.040800024429036
5.42523590503263
9.545925426732378
5.524212556434187
3.983344101844989
2.805063247436767
7.194936752560622
8.350990947372749
2.331147026612275
1.705764663823914
8.404343690746378
6.392478348310251
8.917104373312805
0.4281714392704478
8.879353044629447
1.749009175490221
9.538848741131238
8.254177111755332
9.530951791675816
3.633848382841764
6.366151617156886
5.555475368144995
2.236493139254621
4.027488641003579
6.233542446310226
4.349450895334548
0.4786851939595084
2.909037232812813
1.761870963103723
3.747035697241558
3.949312504816473
2.221643730793775
0.4473890874320392
9.56782936410968
1.821244866288289
5.80294376207164
9.533428763691743
9.527938604957688
7.245512750985531
3.804476444539395
8.955649848061077
2.253980477468192
5.486469093811294
6.362544626812717
9.572128843826935
4.152501538941025
7.092474949891486
8.858286515466514
4.478249085984422
0.4720962210582972
0.4724197641652154
2.663028299012324
1.207135803348212
5.968618736452263
2.147693550700938
5.72040111124495
0.4681388425140138
8.217842828555883
7.198407321039398
3.084811879091091
8.962986871143404
5.938722617803871
3.726832119905656
9.530839074872448
3.956002605359041
0.4463646030115608
9.536882784893587
0.4658008493350209
7.788943886551353
0.4614162507713977
5.966644933540588
5.462685956092746
4.247693958296082
4.458555596087368
8.791497773432976
3.506455919424483
4.034483972698232
2.078213640885785
2.387829672743649
5.851855392308957
1.829890175633914
2.151799265027694
8.229236351285996
5.764801537735741
7.722784983834416
9.547929183281724
8.073014703892342
2.072296057103982
1.682981294836889
2.117154799371633
6.931912636606919
5.375910194484737
1.082528473055433
0.4440891660380273
1.029870854007537
1.665134130247463
1.350399019870867
6.940648362104646
5.456666223326955
5.973879479526356
8.886251080912494
8.223567183293731
2.896903069981884
4.889978741297918
1.081634193032502
6.624509304585848
4.212235046210282
9.575865145255872
7.840551419044411
2.159481878965097
7.84041334832304
2.159145073455953
6.508068174227579
6.288189171193438
4.42077702890833
7.147122056656017
2.339813111221376
3.547819528595657
4.749430725741626
3.04978188662261
6.950218113375497
3.897835242586799
6.802204011627157
2.928025254855871
5.205974825875971
3.227035835376776
6.485783069578782
3.006607211492339
3.524554457828271
5.198985359725801
2.724785215681026
8.258873048159549
7.019327081210339
8.959248089345861
1.559382550388862
6.06174960829216
5.759370793192017
9.545150396599926
8.679798432466727
8.855791395238057
1.09394251493079
1.327215394744504
1.144711803604984
7.063299137100129