# vtk DataFile Version 1.0
2D Simulation C++
ASCII
DATASET UNSTRUCTURED_GRID
FIELD FieldData 1
NODES 1 2 int
8020 15790

POINTS 8020 double
0.0 0.0 0.0
0.0 10.0 0.0
32.5 10.0 0.0
32.5 5.0 0.0
32.5 0.0 0.0
13.0 5.0 0.0
0.0 0.4761904761900502 0.0
0.0 0.9523809523801738 0.0
0.0 1.428571428569921 0.0
0.0 1.904761904759007 0.0
0.0 2.380952380948093 0.0
0.0 2.85714285713718 0.0
0.0 3.333333333326267 0.0
0.0 3.809523809515354 0.0
0.0 4.285714285705605 0.0
0.0 4.761904761896805 0.0
0.0 5.238095238088004 0.0
0.0 5.714285714279203 0.0
0.0 6.190476190470403 0.0
0.0 6.666666666661603 0.0
0.0 7.142857142852802 0.0
0.0 7.619047619044002 0.0
0.0 8.095238095235203 0.0
0.0 8.571428571426402 0.0
0.0 9.047619047617601 0.0
0.0 9.5238095238088 0.0
0.4779411764706936 10.0 0.0
0.9558823529413413 10.0 0.0
1.433823529411887 10.0 0.0
1.911764705882415 10.0 0.0
2.389705882353341 10.0 0.0
2.867647058824476 10.0 0.0
3.345588235295611 10.0 0.0
3.823529411766736 10.0 0.0
4.301470588237381 10.0 0.0
4.779411764707864 10.0 0.0
5.257352941178345 10.0 0.0
5.735294117648827 10.0 0.0
6.213235294119309 10.0 0.0
6.691176470589792 10.0 0.0
7.169117647060273 10.0 0.0
7.647058823530756 10.0 0.0
8.125000000001236 10.0 0.0
8.602941176471717 10.0 0.0
9.080882352942195 10.0 0.0
9.558823529412678 10.0 0.0
10.03676470588316 10.0 0.0
10.51470588235364 10.0 0.0
10.99264705882412 10.0 0.0
11.4705882352946 10.0 0.0
11.94852941176508 10.0 0.0
12.42647058823556 10.0 0.0
12.90441176470604 10.0 0.0
13.38235294117652 10.0 0.0
13.860294117647 10.0 0.0
14.33823529411748 10.0 0.0
14.81617647058796 10.0 0.0
15.29411764705844 10.0 0.0
15.77205882352892 10.0 0.0
16.24999999999941 10.0 0.0
16.72794117646989 10.0 0.0
17.20588235294037 10.0 0.0
17.68382352941086 10.0 0.0
18.16176470588134 10.0 0.0
18.63970588235183 10.0 0.0
19.11764705882231 10.0 0.0
19.59558823529279 10.0 0.0
20.07352941176328 10.0 0.0
20.55147058823376 10.0 0.0
21.02941176470425 10.0 0.0
21.50735294117473 10.0 0.0
21.98529411764521 10.0 0.0
22.4632352941157 10.0 0.0
22.94117647058618 10.0 0.0
23.41911764705666 10.0 0.0
23.89705882352715 10.0 0.0
24.37499999999763 10.0 0.0
24.85294117646811 10.0 0.0
25.3308823529386 10.0 0.0
25.80882352940909 10.0 0.0
26.28676470587956 10.0 0.0
26.76470588235005 10.0 0.0
27.24264705882053 10.0 0.0
27.72058823529102 10.0 0.0
28.1985294117615 10.0 0.0
28.67647058823199 10.0 0.0
29.15441176470247 10.0 0.0
29.63235294117295 10.0 0.0
30.11029411764343 10.0 0.0
30.58823529411392 10.0 0.0
31.0661764705844 10.0 0.0
31.54411764705488 10.0 0.0
32.02205882352551 10.0 0.0
32.5 9.537461488542442 0.0
32.5 9.110247661661234 0.0
32.5 8.71632942187684 0.0
32.5 8.352920100732035 0.0
32.5 8.01743999118337 0.0
32.5 7.707496624142298 0.0
32.5 7.420866028058171 0.0
32.5 7.155474507589394 0.0
32.5 6.909381108865262 0.0
32.5 6.680760044735282 0.0
32.5 6.467883039656645 0.0
32.5 6.269101165071082 0.0
32.5 6.082826501034357 0.0
32.5 5.907513254806567 0.0
32.5 5.741637403567569 0.0
32.5 5.583679879813552 0.0
32.5 5.432108661311174 0.0
32.5 5.285367159979229 0.0
32.5 5.141868793061765 0.0
32.5 4.858131206938235 0.0
32.5 4.714632840020775 0.0
32.5 4.567891338688829 0.0
32.5 4.416320120186453 0.0
32.5 4.258362596432438 0.0
32.5 4.09248674519344 0.0
32.5 3.917173498965652 0.0
32.5 3.730898834928929 0.0
32.5 3.532116960343367 0.0
32.5 3.31923995526473 0.0
32.5 3.090618891134751 0.0
32.5 2.844525492410622 0.0
32.5 2.579133971941842 0.0
32.5 2.292503375857717 0.0
32.5 1.982560008816647 0.0
32.5 1.647079899267982 0.0
32.5 1.283670578123176 0.0
32.5 0.8897523383387922 0.0
32.5 0.4625385114575638 0.0
32.02205882352553 0.0 0.0
31.54411764705491 0.0 0.0
31.06617647058444 0.0 0.0
30.58823529411398 0.0 0.0
30.11029411764351 0.0 0.0
29.63235294117304 0.0 0.0
29.15441176470258 0.0 0.0
28.67647058823211 0.0 0.0
28.19852941176165 0.0 0.0
27.72058823529118 0.0 0.0
27.24264705882072 0.0 0.0
26.76470588235025 0.0 0.0
26.28676470587978 0.0 0.0
25.80882352940932 0.0 0.0
25.33088235293885 0.0 0.0
24.85294117646838 0.0 0.0
24.37499999999793 0.0 0.0
23.89705882352746 0.0 0.0
23.419117647057 0.0 0.0
22.94117647058653 0.0 0.0
22.46323529411607 0.0 0.0
21.9852941176456 0.0 0.0
21.50735294117514 0.0 0.0
21.02941176470468 0.0 0.0
20.55147058823421 0.0 0.0
20.07352941176375 0.0 0.0
19.59558823529328 0.0 0.0
19.11764705882282 0.0 0.0
18.63970588235235 0.0 0.0
18.16176470588189 0.0 0.0
17.68382352941143 0.0 0.0
17.20588235294096 0.0 0.0
16.72794117647049 0.0 0.0
16.25000000000003 0.0 0.0
15.77205882352956 0.0 0.0
15.29411764705909 0.0 0.0
14.81617647058862 0.0 0.0
14.33823529411816 0.0 0.0
13.86029411764769 0.0 0.0
13.38235294117722 0.0 0.0
12.90441176470676 0.0 0.0
12.42647058823629 0.0 0.0
11.94852941176582 0.0 0.0
11.47058823529536 0.0 0.0
10.99264705882489 0.0 0.0
10.51470588235442 0.0 0.0
10.03676470588395 0.0 0.0
9.558823529413484 0.0 0.0
9.080882352943018 0.0 0.0
8.602941176472552 0.0 0.0
8.125000000002085 0.0 0.0
7.647058823531616 0.0 0.0
7.169117647061146 0.0 0.0
6.69117647059068 0.0 0.0
6.213235294120214 0.0 0.0
5.735294117649747 0.0 0.0
5.257352941179281 0.0 0.0
4.779411764708815 0.0 0.0
4.301470588238345 0.0 0.0
3.823529411767876 0.0 0.0
3.345588235297406 0.0 0.0
2.867647058826943 0.0 0.0
2.389705882356477 0.0 0.0
1.911764705886007 0.0 0.0
1.433823529415552 0.0 0.0
0.9558823529450926 0.0 0.0
0.4779411764744665 0.0 0.0
12.99649054800746 5.059136585454831 0.0
12.98601145704154 5.117443022884978 0.0
12.96870983056897 5.174100817712063 0.0
12.94482854549955 5.228314618692611 0.0
12.9147028427276 5.279323382898116 0.0
12.87875562108363 5.326411059091987 0.0
12.83749150076208 5.368916639518141 0.0
12.79148973956047 5.406243439000523 0.0
12.74139610136923 5.437867471095694 0.0
12.68791379106117 5.463344803714272 0.0
12.63179358303867 5.482317790953049 0.0
12.5738232820059 5.494520093660388 0.0
12.51481666391628 5.499780418254248 0.0
12.45560205234314 5.498024921308019 0.0
12.39701069063436 5.489278246150786 0.0
12.33986507307363 5.473663176928802 0.0
12.28496739886616 5.451398914984977 0.0
12.23308831102214 5.422798001753777 0.0
12.18495607821355 5.3882619313626 0.0
12.14124637148172 5.348275514535506 0.0
12.10257277929685 5.303400072913917 0.0
12.06947819411915 5.254265559329403 0.0
12.04242719138054 5.201561714648646 0.0
12.02179950786311 5.146028385322994 0.0
12.00788471102703 5.088445137565878 0.0
12.0008781341181 5.029620313951246 0.0
12.00087813411758 4.970379686057478 0.0
12.0078847110255 4.911554862442619 0.0
12.02179950786071 4.853971614684875 0.0
12.04242719137748 4.79843828535831 0.0
12.06947819411544 4.745734440676881 0.0
12.10257277929276 4.696599927091444 0.0
12.1412463714773 4.651724485469053 0.0
12.18495607820891 4.61173806864117 0.0
12.23308831101738 4.57720199824923 0.0
12.28496739886139 4.548601085017295 0.0
12.33986507306911 4.526336823072724 0.0
12.39701069063074 4.510721753849976 0.0
12.45560205234036 4.501975078692229 0.0
12.51481666391377 4.500219581745677 0.0
12.57382328200409 4.505479906339344 0.0
12.63179358303691 4.517682209046471 0.0
12.68791379105949 4.536655196285043 0.0
12.74139610136785 4.562132528903549 0.0
12.79148973955924 4.593756560998597 0.0
12.83749150076097 4.631083360480839 0.0
12.87875562108282 4.673588940907068 0.0
12.91470284272705 4.720676617101068 0.0
12.9448285454991 4.771685381306513 0.0
12.96870983056872 4.825899182287277 0.0
12.98601145704154 4.882556977115021 0.0
12.99649054800746 4.940863414545169 0.0
7.073511818157784 5.029858106690903 0.0
17.67603798857397 4.649358480801971 0.0
15.51980788912356 6.783494195813232 0.0
15.24030926133367 3.301034215125739 0.0
13.39059288836667 7.665452611149339 0.0
13.33514844902125 2.515057572337582 0.0
27.553726077251 4.955240489983595 0.0
22.60857819543648 5.043377811891269 0.0
30.01625868918043 5.078925927923772 0.0
11.19297549976485 7.384682718964267 0.0
9.913591360931012 5.597812236399048 0.0
10.04661743668775 2.862045395459429 0.0
14.76311500660768 5.145231681905746 0.0
13.93415145135789 6.112125351721792 0.0
14.03987710546389 4.090550796371788 0.0
20.00816164836775 6.837040357041489 0.0
20.22381786441784 4.337963247564542 0.0
25.1329061859065 6.895466842262173 0.0
25.06880113185684 4.339944452449635 0.0
17.72490569462317 6.922862317663928 0.0
13.16553194449592 3.631121279679936 0.0
11.77172088997807 3.185614210999985 0.0
10.57080955409767 4.323632968643673 0.0
13.91374377034483 5.084525880351088 0.0
30.13837285288164 2.736943774153813 0.0
12.97714803757993 6.438898575667718 0.0
11.89449802586309 6.462099473095058 0.0
11.08978250379689 5.730765266542148 0.0
28.65013350140359 7.343592486893503 0.0
21.08179294637462 5.638501419456028 0.0
21.49158692053135 4.420290685252384 0.0
23.28442575507175 2.658030965354746 0.0
19.09405392331934 5.481019786072337 0.0
18.88266169897797 4.20529661880032 0.0
26.10650085401382 5.579605328008349 0.0
26.41580788833501 4.297493346632965 0.0
27.96475993459018 2.810539684373072 0.0
24.12776459459526 5.630050196805615 0.0
22.63763545154895 7.303303006873923 0.0
23.75109720100921 4.357280599395128 0.0
16.32050101350298 5.447792404892583 0.0
30.67863146211478 6.800393022159044 0.0
17.42644006231847 2.375052911461899 0.0
28.84500602434805 4.065613395093855 0.0
28.79695564407173 5.339606801593252 0.0
31.01716197780903 4.004828857038862 0.0
27.36457120726818 6.475514765756182 0.0
16.45539470303436 4.088685492428338 0.0
20.96898099022273 2.194896074976588 0.0
25.69785900402101 2.205498290035236 0.0
31.25176458844598 5.366028913062479 0.0
20.11562171518809 5.323585339276074 0.0
25.09984510603475 5.349907005245907 0.0
19.63064698628524 2.939530820413007 0.0
13.49716835598666 5.580774780603931 0.0
13.54768410031616 4.538493110427036 0.0
29.62357871714568 6.206937429376904 0.0
29.91248767644818 4.000852798510447 0.0
15.69846147335297 4.692355047290491 0.0
22.61507142250197 3.767820463331825 0.0
11.25134206359976 5.006792733438411 0.0
11.48189499429742 4.318487083078582 0.0
12.0623594961527 3.872680352387852 0.0
24.38836200014506 3.25861828363312 0.0
3.630799280908311 3.630116459842547 0.0
[...]
POINT_DATA 8020
SCALARS Psi double
LOOKUP_TABLE default
0.0
10.0
9.68848959484568
4.995971511565859
0.0
5.0
0.4761904761900503
0.952380952380174
1.4285714285699211
1.904761904759007
2.380952380948093
2.85714285713718
3.333333333326267
3.809523809515354
4.285714285705605
4.761904761896805
5.238095238088004
5.714285714279203
6.190476190470404
6.666666666661603
7.142857142852802
7.619047619044003
8.095238095235203
8.571428571426402
9.047619047617601
9.5238095238088
10.0
10.0
10.0
10.0
10.0
10.0
10.0
10.0
10.0
10.0
10.0
10.0
10.0
10.0
10.0
10.0
10.0
10.0
10.0
10.0
10.0
10.0
10.0
10.0
10.0
10.0
10.0
10.0
10.0
10.0
10.0
10.0
10.0
10.0
10.0
10.0
10.0
10.0
10.0
10.0
10.0
10.0
10.0
10.0
10.0
10.0
10.0
10.0
10.0
10.0
10.0
10.0
10.0
10.0
10.0
10.0
10.0
10.0
10.0
10.0
10.0
10.0
10.0
10.0
10.0
10.0
10.0
9.463016425034413
9.087335128325108
8.698109729037288
8.33758439513855
8.004664910227886
7.696547708421375
7.411216761054205
7.146817486114029
6.901513699839601
6.673536445551755
6.46120488156606
6.262883058666713
6.07700172603094
5.902032860398517
5.73645881240057
5.578773454249927
5.427448451188048
5.28093180770869
5.137643082993636
4.854291351519002
4.710973971889741
4.5644110425864115
4.413016599376651
4.2552355057979385
4.0895358325413484
3.914400647662922
3.7283069830088102
3.529709490341243
3.31701974776755
3.088590921919426
2.842694242439063
2.5775035686416863
2.291080045739744
1.9813494476268958
1.6460890021488512
1.2829067472045759
0.8892324994021563
0.46227424267132194
0.0
0.0
0.0
0.0
0.0
0.0
0.0
0.0
0.0
0.0
0.0
0.0
0.0
0.0
0.0
0.0
0.0
0.0
0.0
0.0
0.0
0.0
0.0
0.0
0.0
0.0
0.0
0.0
0.0
0.0
0.0
0.0
0.0
0.0
0.0
0.0
0.0
0.0
0.0
0.0
0.0
0.0
0.0
0.0
0.0
0.0
0.0
0.0
0.0
0.0
0.0
0.0
0.0
0.0
0.0
0.0
0.0
0.0
0.0
0.0
0.0
0.0
0.0
0.0
0.0
0.0
0.0
5.0
5.0
5.0
5.0
5.0
5.0
5.0
5.0
5.0
5.0
5.0
5.0
5.0
5.0
5.0
5.0
5.0
5.0
5.0
5.0
5.0
5.0
5.0
5.0
5.0
5.0
5.0
5.0
5.0
5.0
5.0
5.0
5.0
5.0
5.0
5.0
5.0
5.0
5.0
5.0
5.0
5.0
5.0
5.0
5.0
5.0
5.0
5.0
5.0
5.0
5.0
5.0
5.031015193049709
4.676964076824578
6.654455453209003
3.5095214444458045
7.468695750227345
2.7618482366703625
4.954214480904386
5.046437326792416
5.07592457278292
7.256849908777104
5.569435067379913
2.9357576487742016
5.086742763719059
5.683150855998495
4.599167835886557
6.8353781181188795
4.348272815452924
6.895642210809084
4.340874748954009
6.899592312612823
4.099752212628938
3.411170123896819
4.389501159758242
4.97834327906777
2.73554868376657
6.034277284139843
6.205641421869255
5.622681943424985
7.341050555122609
5.642046891841463
4.426164905959344
2.660895575677532
5.486538900143572
4.225533208741477
5.5794796544608
4.2974254119639355
2.8099189276107337
5.631283450627752
7.303912502756465
4.359463563329794
5.431710744687398
6.794751707009349
2.4283638761274897
4.064054079097412
5.33745586693474
4.002225894991352
6.474307613318558
4.179067669912288
2.2030763446707553
2.2060326881329395
5.361844954708332
5.329384192202132
5.350548155594084
2.9572219453278117
5.018839642334613
5.056040012584469
6.203445331277696
3.9987345983658753
4.792185344049973
3.7718903106574615
5.008371526193984
4.491928486742112
4.211239150705562
3.2602791753184963
3.631431948498695
5.82296590990155
6.15233531974851
5.878023108342459
6.785183334960025
6.832794818395874
5.4168410708246615
4.545864665778861
6.451776937256118
3.793144930118461
7.674063939056101
5.598391959849028
5.06265945103136
4.807858963061258
3.5417689441308453
4.784665284531925
4.839479384198282
5.177634750626553
5.864774124289997
4.823150072639202
6.853084680499878
5.401979160457824
5.753361446888946
6.880757775818325
4.841569091849567
4.841670997017402
3.397597303488173
5.136264931399958
5.733244734907449
6.258750585040688
6.698449149925319
8.21370924338092
5.672722962849715
3.3609752038803946
5.271497621620835
6.361665790792041
7.648453305398811
4.684999007565308
4.7815798187856835
4.216531652008705
4.571791277232814
4.7401284820992435
4.463406782299551
8.210424050312472
2.825377936707227
5.581511149818307
4.730753988293242
4.205957906451585
2.9920336612359577
4.460297983756186
4.124808171673515
6.276749855718183
4.972154104750353
4.1664334243424745
4.559335592756974
2.469409484937481
4.202477793747643
4.603949718853538
5.38790482892361
6.123489361130908
5.945106673648828
1.8134338093193478
2.8666828938551374
6.09267062447457
4.117848224676835
8.372409721440798
3.5778759849200887
5.946515617279745
1.9033805167030853
8.356245563042132
7.622498844185858
8.315191236915314
3.3303000933426716
3.229317935309058
1.87507995233557
5.219348316849209
6.020937397702866
4.960996611167555
7.956688710333693
3.9871935880923783
6.082061206500935
7.260690392085232
5.445293232661718
5.431869024294338
3.3134003431178733
2.024497410311193
4.899978333438263
5.190589436383227
5.222640397173935
7.04860489918897
3.8854603981423055
5.644261785179593
4.943733263797026
3.5269293449122117
4.117060876672713
6.522951661782994
1.7133898330454467
5.284086543624626
4.1778611242485715
2.4329161003512176
5.298284105386685
7.885353607450234
5.565351759717577
5.797490342946743
3.54833515802512
7.78708572734813
3.3512811639988196
5.200490911474134
5.634973085615731
7.2840886999443075
8.198912742869283
4.87291341778371
6.1122867452627165
1.4529952725147997
1.3557039833835767
4.529768025963727
3.4014019896929444
2.079829675972768
3.5393256296983333
4.877654044411528
4.350766639857586
5.382227554861508
5.325875472263107
4.812011105812652
5.160897268901414
6.005949234179619
8.501818433785214
4.631702968876355
5.084553851040035
5.328569451323527
5.371429588436024
4.811460024012431
3.6803016502648696
5.1023104427075605
1.8030717455791994
2.050897629688519
3.9917733162883726
3.4321848091273885
5.252822829684684
6.444468954471268
7.306279773268212
6.594761938424401
5.728845368828683
6.225001614920858
6.724316350843526
7.851591034538651
5.914614958309501
5.407460670537232
1.8135306578362949
5.04137025797381
5.2895569982503705
4.865086858186093
5.637354902671907
5.822718601482762
4.988676292317538
3.511422763403719
4.874817876579488
5.9110993547350645
8.456003560596779
4.173078735616801
6.556934429845953
4.97667971873989
1.2545425426918078
8.508406121047102
5.152459845854783
5.901556981497129
1.8232174303350093
4.329613546860375
4.045092527951124
5.809077510757157
4.682105418766039
6.122846236571035
4.501473710204405
5.554934048246519
3.8042250514098623
8.75105688056545
4.667502327527587
7.775275091215964
6.227856058060442
4.0395985759046225
5.301254239777233
7.179589630171397
4.496927448505045
5.410458800132986
4.897055132196983
4.976556711020052
3.0108621118183594
7.3326565685476925
4.046234334135675
4.758439053115059
3.896958752118351
5.3802507956194
5.769776002838903
3.783742337249036
5.008345910671186
8.666556043837367
5.790682829807743
5.188351638364487
4.707891519040301
6.063107127387638
5.028217863406227
6.45784830606394
3.763042686935789
2.2639844828058924
1.4430245105245143
6.1755745209803505
2.7410314779312372
3.9813366490762356
3.8185306914230646
6.883027582252452
5.150772195696512
1.5419443221223617
3.6175959522032275
8.600293728066681
6.3642884668385085
6.7564891236585245
2.867688774275117
8.338219052707062
5.121979735455028
4.6970292563357
4.997335877744612
1.4497182604219994
6.474574797800696
3.9203249987644417
5.024307904839827
4.958390707103092
4.309089722014838
6.121910002829099
4.60786037772876
4.708481177139962
4.476296661292378
5.021533860899988
4.747887873974617
4.691786779512091
4.7183280640331295
3.9013583677361257
3.7405971628335775
4.707617702291501
4.79725911841117
4.298195095074935
4.9941884757198585
4.661686758086171
4.491668274155098
5.046280103945786
2.879778116110321
4.419066127959516
6.2764968929367955
2.682874311195903
5.1665470252303365
5.0428912154115375
4.5629796795649336
4.574678577177865
5.097218854043422
5.031100510584969
7.100911670346002
4.576564477790748
4.049291802353987
6.1940431490856325
4.558827618986871
7.710065081924509
4.325072988842901
4.091621491881405
6.0138095274240335
7.471027740459521
5.087890440425748
5.481135141755625
7.43609453154031
8.507326119281236
6.6216857444415185
3.48506271952493
6.329999260247319
6.509391607378052
3.4732565691872295
3.423228679889453
3.1726091331304445
8.735906656214999
1.2764154544567754
3.9324017874327355
5.054114517339794
7.651628589690593
4.677885784901863
4.5772100385863075
5.678725043410764
6.172785752739134
4.867537057101334
5.145432982866516
3.819076247757909
5.228199809000368
8.619710382938463
4.861266308092625
5.027679690625906
3.281999876566346
5.625556280593648
6.136310192056843
3.2459782846844747
4.465541133255599
5.058249054137935
5.679313958551743
5.58464724376972
5.5106058748081095
7.47926612873369
3.3963076890544115
2.8071383564120294
4.849318351933489
5.655917830315178
3.1613564079883067
3.8509424236951104
6.366010359000347
7.076220121856139
4.567664746065932
1.5734743614640543
2.6316797857793763
5.8443819276599
5.72885767011023
5.315567266597136
4.6010676514143185
4.2689679717823985
4.6836894199537795
6.709461258400255
6.613612211010861
6.669571116828075
6.93274025639168
3.7114187635196147
1.145934287274139
4.486113661570518
1.3213445071490943
8.504121881398458
6.2897515712294645
5.49429090673051
2.9161884961641036
5.983843362312713
5.517571647519697
5.0860326955230155
7.2132150807552975
4.029352137069522
4.34886845551802
1.7807867260876606
5.783559029435689
5.145634987766877
3.0717440596871497
5.436176035040288
4.960671999871734
5.248014381800847
3.6278359561614177
4.790055906882038
5.006210671057465
3.8290060351563113
5.099017686835627
1.2588221013358736
3.2451550112934267
5.474076226311965
2.539202654136803
7.970030506979698
6.275331103695715
5.800163778058211
4.386002781875079
6.223297873050302
2.98150574894506
5.3954073518861385
6.754136604871627
7.085128436960564
5.699116658300018
5.680475218387774
5.372459654337993
4.217595656921181
6.207244974098901
2.0540181921999507
4.474718450046271
4.21050888356295
5.1996936335028145
5.020037693618407
6.165845364929354
6.629748809794368
6.5464689935293086
5.7578300962856375
3.960354740022251
3.685321270593517
5.416286081772934
5.049987273874569
8.914966465071856
4.525346368491732
5.326865498996494
4.149000852681388
5.843244525589963
5.465236550307778
1.3871314150170635
3.8771926265232524
6.359225621985147
4.500197772069192
1.9502518816517986
2.430424778459901
5.410199011324401
4.162350378221013
6.516215835635947
4.506964986176202
4.428224834125932
8.933811068965138
8.749109172299017
7.2698288318784074
8.18737634127012
5.018352620968566
5.331622546737433
4.751786544165918
5.605145400204875
5.70809213334264
5.504008149039684
6.79544521922119
8.827058622216166
2.2633854916597214
4.549450848244672
4.804423790761269
4.4527857672050875
5.719923767342713
6.659738708102778
8.870068010851364
5.834992839927213
4.315091949212377
6.016803865087365
3.006264622182035
4.380700398584771
4.338755040156498
3.6883660958352675
7.610860508678786
6.683308268832724
5.868749499858611
5.138937370927134
5.120106199072116
4.2710144579216776
2.5436910629183607
2.6477352775104053
7.770125979780555
1.2838844340308264
5.433950025287626
4.773328456997292
3.689185556488316
1.086965492526558
6.708852413486877
4.4869520415723185
5.140750413484607
5.437688202542954
5.3260497466091525
8.70958605363888
4.39160759432362
6.608354178529844
6.076619508403271
7.746654048567623
7.8874975621243095
3.4422496365945014
6.186640550639582
4.474603863150807
4.230212506944856
4.21701496416734
2.569702086758983
1.9771655426260328
4.546005084719604
4.990430411643372
5.679371468900072
5.25592202072137
4.140634816180942
1.1473810033297704
4.016214876931758
3.612452274095847
4.8816065691503505
0.9957811038233239
6.275477274461601
5.85387046710043
4.917622274093997
4.866235054537775
5.006206371853061
4.623878734329459
5.881113201113727
5.570603687957842
4.906848348655311
3.447783621610828
8.477668014331707
6.278762178648443
5.052685748236278
4.928223386647524
3.980649948749965
1.9347534294513096
5.758257678456406
4.494158808328523
4.971166349852406
1.006886029208399
2.575910980720197
8.790833399336998
3.4541992330120066
5.850146928504379
5.653435370332284
5.170747310449951
4.024208792120377
6.675100857258315
8.856207452236829
7.56453433000477
2.8507091469266213
1.236720820864351
5.678155401087972
6.302443154581758
4.6209058231949
3.834820155620143
9.007999248995288
3.899377793084414
7.903010437973196
4.194629038167927
5.0993454451871765
7.209558537617229
8.67346238148835
4.761729878280769
5.10659090763055
4.914856085622592
2.778430661194158
6.1457062183106235
6.566914576872325
3.4496337122842786
2.6579621630039094
3.6569737601328445
5.264579473939258
5.342275029316192
5.072854888825128
3.999556675265725
1.103087899241138
3.805090250581081
4.928958587582798
5.738011354123145
7.209003622774998
5.868414581318582
2.7190735432711044
4.128505414862447
5.857413819314663
5.024670700840886
7.132197444763668
4.981680183727266
4.0174498226602955
4.763132310467239
2.0841266073658793
4.820856172633106
2.000409445615867
5.022082172136974
5.718443153594843
7.262832729654706
3.265369555338122
4.413394942648677
4.319475095023024
5.284773215605854
5.0220151866821325
4.89495111410244
2.7349587045008787
4.640553992858887
3.387985545737858
3.6827856220818282
5.507755718049117
5.266789840640935
5.235133883860932
6.0997813780128265
2.9004253028637574
6.25208832760434
3.6909474510942006
5.277243295801364
1.0143208920670717
3.4696080367780033
6.027618592332368
5.975765713915187
5.593125841600409
6.842175109617698
4.995462274676259
3.9444655338089154
4.911361089064362
7.8978543886423775
5.5712149643752795
3.6727098319070204
4.999299580642963
3.9364380920271165
5.786896835727292
6.071326906395655
5.4734847108127616
5.44249963293326
9.135993893495165
1.1803376479570495
4.180642552713673
4.995745610855943
5.142976305898019
5.467049504481568
7.596101218770125
8.034623886008312
2.857242258461176
3.7176014170017213
4.202823505978567
4.879734361906362
5.911341646594894
4.741717868106721
2.3340255317266854
3.7384820025673515
6.170201879820404
4.664737808837072
6.778773443913388
3.4455901997639926
7.248515620352929
4.840464547503928
4.606616335748409
7.351975266664965
2.6147954640456645
2.345552322999856
5.043175960078886
4.173265898862231
6.251929978479768
6.735520647541776
3.1450703297992035
3.9879433676385734
5.340612350529457
5.950566343022066
4.984122556668708
5.808945586668587
7.486009930261359
8.871874779484338
5.563999206357168
4.9797575841820585
5.981661779819196
5.527759677529253
2.0859845869670948
9.036230609153083
8.961378973012241
5.633069247538513
2.3525326860783555
4.0478915476463895
4.971028697611181
3.8256740170287062
5.182666046962286
4.372318804456721
6.039558847557904
0.9434303951519439
3.6104973212447193
1.2087379625271069
7.020872464212131
5.266957683236006
2.334577452503938
4.865968282513
5.914930385631969
6.914832086342686
0.9779399875728554
6.333107960373503
3.3523986247277993
7.153753065047675
5.744660457407487
3.985418421371653
4.212972224522595
6.599481763345551
1.071187395886889
6.550240497662211
5.17268740673945
5.537029676073622
6.09588015616793
7.121538047165177
1.006328169558142
4.990379231111851
4.172896895874392
5.362628821913101
5.128377550680541
4.743880668251527
5.432977030451504
5.077458169161708
5.055728866125532
4.574501805753642
4.94586238513184
4.652202042501803
4.929059127424544
4.71169300131622
5.048780813095707
5.282674595095572
4.7840158712552805
5.0694204658995945
6.03123740202299
5.537495984057328
5.158060218849138
5.138521333635352
6.0229870680350315
5.21526298703002
4.800558796964058
5.353356354634177
5.672114536220504
5.972737281478413
3.905566084123549
4.917862591255259
5.089977199282226
4.7628422405775135
7.66954039292812
1.6853450273973942
9.21788953820334
6.038674290697993
5.203075287903907
4.608076160191679
2.7672795144045517
6.903619984044841
5.199521515430364
5.335242904459657
0.9891646639659573
5.703770675969783
5.952890738169931
4.3815468858437345
4.986232269715447
4.47335609012045
5.224492458186001
7.282786193099219
5.679382583236359
5.222017568085259
7.70793772882211
3.16794524961591
3.804679036968903
4.784198466716502
5.656822499230001
7.408749308596456
7.946489221097745
3.786222661255723
2.118457980191599
3.214272409220783
2.442142226728068
4.039776336489957
3.407246641396113
2.475423801528909
6.558968041339279
7.434993639513365
4.619474752193376
5.89191287988143
4.534374326940076
2.4055989251436296
3.3405408370566314
4.483169932897515
5.9815758965762855
4.559282461990472
6.392714034000282
6.5862797575100815
4.8577299962291125
5.099228334783134
9.170115835970527
4.84651450258357
4.1483583613896435
8.598887651151072
4.383336827404323
4.226114273786899
5.7022220205977305
4.483822408141105
5.871169845393263
5.943279679878181
4.829314986238959
3.092541037621846
4.226306951303688
3.746777043746868
6.548375721808919
2.3097154040800993
5.843492142770479
0.8961383289742294
2.0271769131130797
5.5613292556574025
7.962137956444322
6.097394694660114
4.4486970140363935
4.048279692141181
4.930798615149237
3.8873860211944673
6.550450339502368
5.974884194566403
3.7309828854665223
4.483354407548825
5.230311250117528
8.150498547014628
1.8994154180903937
4.424428693757193
4.802316423322104
6.476267048799805
5.096873515483914
7.508434020659271
5.787608946659686
5.662426750613528
5.7205336317291335
4.223362665209762
4.077712561902573
6.688209940656386
4.763936246499211
4.506035381691222
5.112139788107812
5.126268253441875
4.520017555999355
4.376965913382379
4.779024285566688
7.192906221037359
5.3733579563883485
9.279431096315259
6.246703082912835
4.386491061595864
5.046001806532021
5.06640554744848
7.6792313911242855
5.749129121819487
4.094564560646577
0.9300178639467886
4.940947040940624
4.015745875468188
7.4512691568769664
3.4085983955390917
5.540265000104672
5.807392392426582
4.134728794722149
7.812749555958666
6.841064302068496
5.454544819106761
6.919091276085759
5.015729500423644
2.942930677265468
4.9877818647210335
6.288478139148846
4.9265811027079796
4.879949217383875
6.491303966318038
5.597891110321384
7.840423226357569
5.407970460753336
4.667547668969603
5.368772317045248
5.38534089536966
4.760014178291003
5.360506467645934
5.525353070404992
5.509977402920112
4.114751982358164
6.362888200159379
7.68752504328373
4.140867522344733
6.012678166571062
2.7674335158978605
4.181005436700223
3.1166390761740446
4.7829539711640265
4.995615523385178
6.07108468494516
5.991118782427498
3.286759862574474
3.658877411188795
4.293199570551751
4.3222548437796755
4.854461990681751
4.85625170128508
8.109650793799368
6.460547310627958
2.8934525257266515
0.9633188753662015
9.011233774532027
8.249251275653757
3.8695028889377774
9.090878649854332
3.316232847495073
4.7929109611099765
4.512999098055478
2.3082763440768184
5.864650592603885
6.19853230030889
5.064225510356022
2.2593257995441807
8.223691173839835
5.552348005723914
5.4020853782473015
3.088744002407014
0.798044234522827
6.861301132111941
6.159728720259067
4.080111488581223
2.9857059979333873
7.077153209132212
4.528718511222061
7.6815110595286455
0.7923806135272932
3.917204693864233
1.9675650259136541
4.702518865952792
5.636898725448293
2.2696963775355306
6.27212476675542
4.818417894836845
5.29602340479618
5.213024781037941
4.009960619714512
6.905937858913748
6.32972864703361
7.1859886947249585
4.703276802560979
6.566170759697062
7.211525248948649
7.662702096770059
5.32239239594063
5.320545441831366
4.303084759867251
4.387025265197106
3.065608822946415
2.3821986856125075
5.410911636966584
5.0171775411817245
5.820180380714987
5.028467227522801
6.43410935801966
6.222808837554828
3.3652518879253903
3.181167917310065
3.1454295447715954
4.366252424534709
4.114606114134045
4.165627255031522
5.572127997705205
6.292409951186055
4.281855237131467
9.174711741927984
6.633457759049216
3.739926394611703
6.333252281183258
6.498855022143458
3.3087007103791337
5.1052466631267555
7.087701180936233
7.104120059864207
4.5457697102458425
7.129455945276523
9.15293253206042
6.173088329252808
6.11200969394452
4.370242972578947
5.0803889377735985
1.8457108779300437
3.973623280194482
4.594956343888938
5.512350853713998
3.151586519246769
5.602239222822449