# vtk DataFile Version 1.0
2D Simulation C++
ASCII
DATASET UNSTRUCTURED_GRID
FIELD FieldData 1
NODES 1 2 int
14521 28612

POINTS 14521 double
0.0 0.0 0.0
0.0 10.0 0.0
32.5 10.0 0.0
32.5 5.0 0.0
32.5 0.0 0.0
13.0 5.0 0.0
0.0 0.2941176470586055 0.0
0.0 0.5882352941171234 0.0
0.0 0.8823529411757415 0.0
0.0 1.176470588234357 0.0
0.0 1.470588235292488 0.0
0.0 1.764705882350453 0.0
0.0 2.058823529408418 0.0
0.0 2.352941176466384 0.0
0.0 2.647058823524349 0.0
0.0 2.941176470582313 0.0
0.0 3.235294117640277 0.0
0.0 3.529411764698242 0.0
0.0 3.823529411756206 0.0
0.0 4.117647058814589 0.0
0.0 4.41176470587386 0.0
0.0 4.70588235293313 0.0
0.0 4.999999999992401 0.0
0.0 5.294117647051672 0.0
0.0 5.588235294110941 0.0
0.0 5.882352941170211 0.0
0.0 6.176470588229482 0.0
0.0 6.470588235288753 0.0
0.0 6.764705882348023 0.0
0.0 7.058823529407294 0.0
0.0 7.352941176466564 0.0
0.0 7.647058823525834 0.0
0.0 7.941176470585106 0.0
0.0 8.235294117644376 0.0
0.0 8.529411764703648 0.0
0.0 8.823529411762916 0.0
0.0 9.117647058822186 0.0
0.0 9.411764705881458 0.0
0.0 9.70588235294073 0.0
0.2981651376147483 10.0 0.0
0.5963302752294813 10.0 0.0
0.8944954128441965 10.0 0.0
1.192660550458881 10.0 0.0
1.490825688073508 10.0 0.0
1.788990825688125 10.0 0.0
2.087155963302878 10.0 0.0
2.385321100917831 10.0 0.0
2.683486238532852 10.0 0.0
2.981651376147873 10.0 0.0
3.279816513762893 10.0 0.0
3.577981651377914 10.0 0.0
3.876146788992889 10.0 0.0
4.174311926607628 10.0 0.0
4.472477064222242 10.0 0.0
4.770642201836855 10.0 0.0
5.068807339451469 10.0 0.0
5.366972477066083 10.0 0.0
5.665137614680697 10.0 0.0
5.963302752295311 10.0 0.0
6.261467889909925 10.0 0.0
6.559633027524539 10.0 0.0
6.857798165139153 10.0 0.0
7.155963302753767 10.0 0.0
7.454128440368381 10.0 0.0
7.752293577982995 10.0 0.0
8.050458715597609 10.0 0.0
8.348623853212223 10.0 0.0
8.646788990826836 10.0 0.0
8.94495412844145 10.0 0.0
9.243119266056064 10.0 0.0
9.541284403670678 10.0 0.0
9.83944954128529 10.0 0.0
10.1376146788999 10.0 0.0
10.43577981651452 10.0 0.0
10.73394495412913 10.0 0.0
11.03211009174375 10.0 0.0
11.33027522935836 10.0 0.0
11.62844036697297 10.0 0.0
11.92660550458759 10.0 0.0
12.2247706422022 10.0 0.0
12.52293577981682 10.0 0.0
12.82110091743143 10.0 0.0
13.11926605504605 10.0 0.0
13.41743119266066 10.0 0.0
13.71559633027527 10.0 0.0
14.01376146788989 10.0 0.0
14.3119266055045 10.0 0.0
14.61009174311912 10.0 0.0
14.90825688073373 10.0 0.0
15.20642201834834 10.0 0.0
15.50458715596296 10.0 0.0
15.80275229357757 10.0 0.0
16.10091743119218 10.0 0.0
16.3990825688068 10.0 0.0
16.69724770642141 10.0 0.0
16.99541284403603 10.0 0.0
17.29357798165064 10.0 0.0
17.59174311926525 10.0 0.0
17.88990825687987 10.0 0.0
18.18807339449448 10.0 0.0
18.48623853210909 10.0 0.0
18.78440366972371 10.0 0.0
19.08256880733832 10.0 0.0
19.38073394495293 10.0 0.0
19.67889908256754 10.0 0.0
19.97706422018216 10.0 0.0
20.27522935779677 10.0 0.0
20.57339449541138 10.0 0.0
20.87155963302599 10.0 0.0
21.1697247706406 10.0 0.0
21.46788990825521 10.0 0.0
21.76605504586983 10.0 0.0
22.06422018348444 10.0 0.0
22.36238532109905 10.0 0.0
22.66055045871366 10.0 0.0
22.95871559632827 10.0 0.0
23.25688073394288 10.0 0.0
23.55504587155749 10.0 0.0
23.85321100917211 10.0 0.0
24.15137614678672 10.0 0.0
24.44954128440133 10.0 0.0
24.74770642201594 10.0 0.0
25.04587155963055 10.0 0.0
25.34403669724516 10.0 0.0
25.64220183485978 10.0 0.0
25.94036697247438 10.0 0.0
26.238532110089 10.0 0.0
26.5366972477036 10.0 0.0
26.83486238531822 10.0 0.0
27.13302752293283 10.0 0.0
27.43119266054744 10.0 0.0
27.72935779816205 10.0 0.0
28.02752293577667 10.0 0.0
28.32568807339127 10.0 0.0
28.62385321100589 10.0 0.0
28.9220183486205 10.0 0.0
29.22018348623511 10.0 0.0
29.51834862384972 10.0 0.0
29.81651376146434 10.0 0.0
30.11467889907894 10.0 0.0
30.41284403669356 10.0 0.0
30.71100917430817 10.0 0.0
31.00917431192278 10.0 0.0
31.30733944953739 10.0 0.0
31.605504587152 10.0 0.0
31.90366972476661 10.0 0.0
32.20183486238237 10.0 0.0
32.5 9.704670932249275 0.0
32.5 9.40934186449855 0.0
32.5 9.119724688466377 0.0
32.5 8.843554074514566 0.0
32.5 8.580208926166412 0.0
32.5 8.329033426013027 0.0
32.5 8.089398249298329 0.0
32.5 7.860698623560229 0.0
32.5 7.642352095094644 0.0
32.5 7.433796399747433 0.0
32.5 7.234487076551145 0.0
32.5 7.043894845848946 0.0
32.5 6.861502922847221 0.0
32.5 6.686804005096128 0.0
32.5 6.519296609419547 0.0
32.5 6.358481287304047 0.0
32.5 6.203856309284161 0.0
32.5 6.054912477284352 0.0
32.5 5.911127605902981 0.0
32.5 5.771960797335053 0.0
32.5 5.636846224632778 0.0
32.5 5.505187804642507 0.0
32.5 5.376355306795872 0.0
32.5 5.249683025653217 0.0
32.5 5.124472555996909 0.0
32.5 4.87552744400309 0.0
32.5 4.750316974346781 0.0
32.5 4.623644693204131 0.0
32.5 4.494812195357495 0.0
32.5 4.363153775367226 0.0
32.5 4.228039202664948 0.0
32.5 4.088872394097016 0.0
32.5 3.945087522715645 0.0
32.5 3.796143690715835 0.0
32.5 3.641518712695949 0.0
32.5 3.480703390580449 0.0
32.5 3.313195994903866 0.0
32.5 3.138497077152773 0.0
32.5 2.956105154151047 0.0
32.5 2.765512923448848 0.0
32.5 2.566203600252559 0.0
32.5 2.357647904905347 0.0
32.5 2.139301376439767 0.0
32.5 1.910601750701668 0.0
32.5 1.670966573986973 0.0
32.5 1.419791073833593 0.0
32.5 1.156445925485432 0.0
32.5 0.8802753115336266 0.0
32.5 0.5906581355014486 0.0
32.5 0.2953290677507248 0.0
32.20183486238238 0.0 0.0
31.90366972476663 0.0 0.0
31.60550458715203 0.0 0.0
31.30733944953742 0.0 0.0
31.00917431192282 0.0 0.0
30.71100917430822 0.0 0.0
30.41284403669362 0.0 0.0
30.11467889907901 0.0 0.0
29.81651376146441 0.0 0.0
29.51834862384981 0.0 0.0
29.2201834862352 0.0 0.0
28.9220183486206 0.0 0.0
28.623853211006 0.0 0.0
28.3256880733914 0.0 0.0
28.02752293577679 0.0 0.0
27.72935779816219 0.0 0.0
27.43119266054759 0.0 0.0
27.13302752293298 0.0 0.0
26.83486238531838 0.0 0.0
26.53669724770378 0.0 0.0
26.23853211008917 0.0 0.0
25.94036697247457 0.0 0.0
25.64220183485996 0.0 0.0
25.34403669724536 0.0 0.0
25.04587155963076 0.0 0.0
24.74770642201615 0.0 0.0
24.44954128440155 0.0 0.0
24.15137614678694 0.0 0.0
23.85321100917234 0.0 0.0
23.55504587155774 0.0 0.0
23.25688073394313 0.0 0.0
22.95871559632853 0.0 0.0
22.66055045871393 0.0 0.0
22.36238532109932 0.0 0.0
22.06422018348472 0.0 0.0
21.76605504587012 0.0 0.0
21.46788990825551 0.0 0.0
21.16972477064091 0.0 0.0
20.87155963302631 0.0 0.0
20.5733944954117 0.0 0.0
20.2752293577971 0.0 0.0
19.9770642201825 0.0 0.0
19.6788990825679 0.0 0.0
19.38073394495329 0.0 0.0
19.08256880733868 0.0 0.0
18.78440366972408 0.0 0.0
18.48623853210948 0.0 0.0
18.18807339449488 0.0 0.0
17.88990825688027 0.0 0.0
17.59174311926567 0.0 0.0
17.29357798165107 0.0 0.0
16.99541284403646 0.0 0.0
16.69724770642186 0.0 0.0
16.39908256880725 0.0 0.0
16.10091743119265 0.0 0.0
15.80275229357805 0.0 0.0
15.50458715596345 0.0 0.0
15.20642201834884 0.0 0.0
14.90825688073424 0.0 0.0
14.61009174311963 0.0 0.0
14.31192660550503 0.0 0.0
14.01376146789042 0.0 0.0
13.71559633027582 0.0 0.0
13.41743119266122 0.0 0.0
13.11926605504662 0.0 0.0
12.82110091743201 0.0 0.0
12.52293577981741 0.0 0.0
12.22477064220281 0.0 0.0
11.92660550458821 0.0 0.0
11.62844036697361 0.0 0.0
11.33027522935901 0.0 0.0
11.03211009174441 0.0 0.0
10.7339449541298 0.0 0.0
10.4357798165152 0.0 0.0
10.1376146789006 0.0 0.0
9.839449541286001 0.0 0.0
9.541284403671398 0.0 0.0
9.243119266056798 0.0 0.0
8.944954128442202 0.0 0.0
8.646788990827599 0.0 0.0
8.348623853212999 0.0 0.0
8.050458715598396 0.0 0.0
7.752293577983796 0.0 0.0
7.454128440369193 0.0 0.0
7.155963302754593 0.0 0.0
6.85779816513999 0.0 0.0
6.559633027525393 0.0 0.0
6.26146788991079 0.0 0.0
5.963302752296187 0.0 0.0
5.665137614681587 0.0 0.0
5.366972477066984 0.0 0.0
5.068807339452384 0.0 0.0
4.770642201837781 0.0 0.0
4.472477064223181 0.0 0.0
4.174311926608581 0.0 0.0
3.876146788993982 0.0 0.0
3.577981651379378 0.0 0.0
3.279816513764779 0.0 0.0
2.981651376150179 0.0 0.0
2.683486238535576 0.0 0.0
2.385321100920976 0.0 0.0
2.087155963306376 0.0 0.0
1.788990825691776 0.0 0.0
1.490825688077173 0.0 0.0
1.19266055046257 0.0 0.0
0.8944954128479665 0.0 0.0
0.5963302752333668 0.0 0.0
0.298165137617616 0.0 0.0
12.99937846060976 5.024922942824306 0.0
12.99751538768329 5.049783923292 0.0
12.99441541311343 5.074521133082333 0.0
12.9900862439254 5.099073071594094 0.0
12.98453864311594 5.123378698839655 0.0
12.97778640289475 5.1473775872 0.0
12.96984631039484 5.171010071657642 0.0
12.96073810593722 5.194217398132568 0.0
12.95048443395334 5.216941869554349 0.0
12.93911078668734 5.239126989306574 0.0
12.92664544081843 5.260717601685897 0.0
12.91311938716051 5.281660029028131 0.0
12.89856625361406 5.301902205159314 0.0
12.88302222156224 5.321393804839989 0.0
12.86652593591789 5.340086368882249 0.0
12.84911840904608 5.357933424626895 0.0
12.83084291880141 5.374890601481234 0.0
12.81174490093244 5.390915741231562 0.0
12.79187183612062 5.405969002855607 0.0
12.77127313193625 5.42001296157321 0.0
12.75000000000368 5.433012701890096 0.0
12.72810532868064 5.444935904403652 0.0
12.70564355156948 5.455752926153954 0.0
12.68267051218724 5.465436874320517 0.0
12.65924332512987 5.473963673082213 0.0
12.63542023407562 5.481312123473847 0.0
12.6112604669825 5.487463956089922 0.0
12.58682408883806 5.492403876505294 0.0
12.5621718523285 5.49611960329949 0.0
12.53736504679821 5.498601898590215 0.0
12.512465345874 5.499844591000285 0.0
12.48753465413557 5.499844591000523 0.0
12.46263495321133 5.49860189859093 0.0
12.43782814768099 5.49611960330068 0.0
12.41317591117137 5.492403876506956 0.0
12.38873953302684 5.487463956092052 0.0
12.36457976593359 5.48131212347644 0.0
12.34075667487921 5.473963673085262 0.0
12.31732948782167 5.465436874324014 0.0
12.29435644843925 5.455752926157889 0.0
12.27189467132783 5.444935904407994 0.0
12.25000000000449 5.433012701894812 0.0
12.22872686807166 5.420012961578315 0.0
12.20812816388707 5.405969002861141 0.0
12.18825509907505 5.390915741237538 0.0
12.1691570812058 5.374890601487596 0.0
12.15088159096094 5.357933424633736 0.0
[...]
POINT_DATA 14521
SCALARS Psi double
LOOKUP_TABLE default
0.0
10.0
9.650223709583576
4.685119317499991
0.0
5.0
0.2941176470586055
0.5882352941171234
0.8823529411757415
1.176470588234357
1.470588235292488
1.764705882350453
2.058823529408418
2.352941176466384
2.647058823524349
2.9411764705823136
3.235294117640277
3.5294117646982426
3.823529411756206
4.117647058814589
4.41176470587386
4.70588235293313
4.999999999992401
5.294117647051672
5.588235294110941
5.882352941170211
6.176470588229482
6.470588235288753
6.764705882348023
7.058823529407294
7.352941176466565
7.647058823525834
7.9411764705851065
8.235294117644376
8.529411764703648
8.823529411762916
9.117647058822186
9.411764705881458
9.70588235294073
10.0
10.0
10.0
10.0
10.0
10.0
10.0
10.0
10.0
10.0
10.0
10.0
10.0
10.0
10.0
10.0
10.0
10.0
10.0
10.0
10.0
10.0
10.0
10.0
10.0
10.0
10.0
10.0
10.0
10.0
10.0
10.0
10.0
10.0
10.0
10.0
10.0
10.0
10.0
10.0
10.0
10.0
10.0
10.0
10.0
10.0
10.0
10.0
10.0
10.0
10.0
10.0
10.0
10.0
10.0
10.0
10.0
10.0
10.0
10.0
10.0
10.0
10.0
10.0
10.0
10.0
10.0
10.0
10.0
10.0
10.0
10.0
10.0
10.0
10.0
10.0
10.0
10.0
10.0
10.0
10.0
10.0
10.0
10.0
10.0
10.0
10.0
10.0
10.0
10.0
10.0
10.0
10.0
10.0
10.0
10.0
10.0
10.0
10.0
10.0
10.0
10.0
10.0
10.0
10.0
10.0
10.0
10.0
9.358965596765287
9.1031143211189
8.905712260996822
8.653041778169586
8.370828139893444
8.090602155826042
7.823026390606238
7.569190087125207
7.327802671881574
7.097624385421801
6.8783457657556175
6.670214689619005
6.473438856023181
6.287568611202482
6.112227821776192
5.947122716769648
5.791623450852821
5.644410578675437
5.505052704522182
5.372898421488009
5.2470783327353985
5.126987197361935
5.01155894307857
4.899948478634224
4.791421899488797
4.5801757980661595
4.4759226698929515
4.371362236489247
4.265471053581578
4.1576497907535845
4.047314219520661
3.933541267710183
3.815628254591567
3.6926359938217455
3.5635195838925537
3.4276348306872673
3.283992411342992
3.1301083376036747
2.9635340504590766
2.7848700245544666
2.5953975035252324
2.393185134977
2.1766840954960207
1.9459624771230726
1.702722172424255
1.4472909369024596
1.1790899866108109
0.8973702361736976
0.6016848314860387
0.30055037651556077
0.0
0.0
0.0
0.0
0.0
0.0
0.0
0.0
0.0
0.0
0.0
0.0
0.0
0.0
0.0
0.0
0.0
0.0
0.0
0.0
0.0
0.0
0.0
0.0
0.0
0.0
0.0
0.0
0.0
0.0
0.0
0.0
0.0
0.0
0.0
0.0
0.0
0.0
0.0
0.0
0.0
0.0
0.0
0.0
0.0
0.0
0.0
0.0
0.0
0.0
0.0
0.0
0.0
0.0
0.0
0.0
0.0
0.0
0.0
0.0
0.0
0.0
0.0
0.0
0.0
0.0
0.0
0.0
0.0
0.0
0.0
0.0
0.0
0.0
0.0
0.0
0.0
0.0
0.0
0.0
0.0
0.0
0.0
0.0
0.0
0.0
0.0
0.0
0.0
0.0
0.0
0.0
0.0
0.0
0.0
0.0
0.0
0.0
0.0
0.0
0.0
0.0
0.0
0.0
0.0
0.0
0.0
0.0
5.0
5.0
5.0
5.0
5.0
5.0
5.0
5.0
5.0
5.0
5.0
5.0
5.0
5.0
5.0
5.0
5.0
5.0
5.0
5.0
5.0
5.0
5.0
5.0
5.0
5.0
5.0
5.0
5.0
5.0
5.0
5.0
5.0
5.0
5.0
5.0
5.0
5.0
5.0
5.0
5.0
5.0
5.0
5.0
5.0
5.0
5.0
5.0
5.0
5.0
5.0
5.0
5.0
5.0
5.0
5.0
5.0
5.0
5.0
5.0
5.0
5.0
5.0
5.0
5.0
5.0
5.0
5.0
5.0
5.0
5.0
5.0
5.0
5.0
5.0
5.0
5.0
5.0
5.0
5.0
5.0
5.0
5.0
5.0
5.0
5.0
5.0
5.0
5.0
5.0
5.0
5.0
5.0
5.0
5.0
5.0
5.0
5.0
5.0
5.0
5.0
5.0
5.0
5.0
5.0
5.0
5.0
5.0
5.0
5.0
5.0
5.0
5.0
5.0
5.0
5.0
5.0
5.0
5.0
5.0
5.0
5.0
5.0
5.0
5.0
5.28248290609922
6.580957660512125
3.6432944973624335
4.901567802040536
2.6841438587427953
2.70048516929507
4.409396928041792
6.825130990651027
7.368172449317567
5.022924753861576
5.112030719619029
4.971076717084459
5.7644592206468905
4.387373088492868
6.785014374138504
4.914199731160106
5.465188332539954
3.506059682355127
3.9720292851114305
5.048422515749549
6.608983894965495
4.419404897878716
6.674901823614218
4.456339286721609
4.745045393131851
6.172744653598306
4.126302193555748
7.099443777845544
5.943219995166609
5.72815748791102
7.168659080152078
2.828821950842755
3.107175850632488
2.889612182443619
5.399411820153022
2.709914524594676
4.192186325328703
3.431035048160676
4.907260567598527
4.354115726943483
4.549587803555927
4.8032649342332014
7.36343428097222
5.554892163238988
5.424946070910669
4.989428313724462
6.273938148203566
5.447029458430503
5.443788692722228
3.3899880432812677
6.57487337734157
4.519753898317071
5.1895893095435826
4.722722707137358
5.730372101825733
4.41785904484657
5.560299679519672
7.150016791238861
5.761600767210711
4.68848161997027
2.304905604229162
3.188612809613209
5.2878820463060245
4.215867864457791
5.022964094568963
4.658634347772093
2.920054806838875
5.559195132228089
3.005266904062325
3.919088131518534
5.452183374278407
5.172743254657014
4.635022961733088
4.872731993504628
7.411215032908846
4.287888322761728
4.028249246977463
5.219271577562415
2.58392708898778
5.138818362037341
5.318909721062821
6.102080718309838
5.976780585916028
5.041415762766058
4.041644288960621
6.079149556859718
5.745799378617583
5.0122675677287525
4.587931698392923
2.0825238429101676
3.3480541709607765
4.635250884966777
2.624701722381237
6.595807693221981
5.004149622952663
5.863973666484063
4.990116102541288
3.8374666202327794
4.336270448760458
4.651538594647589
6.5951357519549205
7.132887494969138
5.659186565252752
6.442024987305662
8.04921380423193
4.869866240679879
3.7456073461264854
8.249690815285888
1.7660587560192016
5.148856787804081
4.773993522610121
8.260715143405509
5.072377678832222
5.282554704489754
4.79629011048414
5.03233300526723
4.709822801340996
4.786755298215122
5.524597965970502
5.111782950938276
7.763580819578247
3.9609879864599744
4.909262547771497
3.725582252960903
5.680750646888941
3.840366068919933
5.252152266222362
5.331474974805983
1.8722304526925495
8.26600993456742
1.742045241980829
8.066103777035623
7.827331900087296
2.125796148330044
5.20376521804137
5.261340031331448
4.764856202205892
3.9944013988006857
8.206530971597337
8.21026723179789
3.7588402337603655
1.7314830516636506
4.737098522499283
4.34625662822403
4.948081486257943
4.933130992471596
1.6833957224677987
4.697792768279878
3.6508365190474126
5.0212612683208375
8.29899332343669
4.858071664533364
3.1450142416509834
5.0937862784684445
4.211655503664503
4.8599776688177245
5.248722597570695
8.058295043983422
3.553654881464655
4.5185139423486245
5.125010225121527
1.5654393197104237
4.912474577328918
5.14066125873221
6.199880096317064
3.792216894573833
5.7459702562109065
6.39963671734422
8.40554501088023
4.196134333310319
4.3153076660682155
5.887968396972591
5.789152861225479
7.00180502412571
5.858838480054742
4.4609133910826975
1.6368984869851468
2.692095947555604
7.430896893207134
4.7511433526405655
5.089238065090687
1.5801292055073513
5.483839106059808
3.834819409966914
4.337505287930404
5.011388534774766
5.73361660046636
4.269886124036742
6.071657852296915
5.57391611628485
6.583874076638335
4.6268825400242495
5.829737128267913
3.132835402615403
4.86413515895705
4.920321657615135
4.800282995116207
1.6661617840172092
4.180950513774365
6.3319345709582935
4.9894705994857205
2.3877670084716196
1.5663641627316502
8.481014544365783
1.5119799827361193
6.831461246984571
4.856981860513384
6.5352024275726635
8.519081274305996
3.8339432596640703
8.338435254034325
5.486410536203591
5.579334419082851
1.5069352254604065
6.43767378549524
6.584170501969006
5.311657095257533
5.019256659578865
2.847421897994422
1.375749967202404
5.554199614243234
5.158154796013638
6.998879248604764
4.804695475071633
1.3090224116833338
5.190631389681832
4.5728606870817385
6.978231874132943
6.06222246479697
1.3996256046814068
5.613220366069652
3.3072122876385235
2.8340387081464646
3.6030034326630256
5.366868451069502
7.735684734144749
3.335275286347933
5.93637550674106
4.396718609588139
4.437109697640518
4.989366221900486
8.707700412630187
4.983405133393782
5.383310628456697
3.583293002165072
4.724023829713635
5.151075696179444
8.61227262993148
4.823113616460527
6.276522470129078
5.118385308455845
6.039975072054348
4.790076377392255
5.293378364978899
4.767642165560238
5.028505532069444
5.044755969579469
5.187918918793329
5.19876771423201
6.130709791713519
4.273803129814126
3.9232352214338464
4.7595014643964735
1.4113770810565558
4.267403400788564
8.526004465736014
6.8769985483817235
4.942333749928497
5.0033845995011
2.524177001996685
4.999923463656913
5.00927027107916
4.8072607209396745
5.1793784306034665
2.4625472799295536
1.464485058857041
3.960146027604062
3.2006443691012643
3.901331472917633
3.8461004411392725
7.0369116751370155
6.199026446127194
3.014408160487765
7.535644345180332
3.135635906071717
2.8107771504001002
5.3448121155866515
5.917177338554399
4.842303926571368
7.246575303244794
1.6334534326517947
3.061985661272835
2.7088676744215032
5.994647679358427
4.6890926165128946
4.811114588687654
5.02650660221786
4.360838899421573
2.891833406183393
4.109610839521392
5.097810444706739
4.891022196128715
4.96734130014781
8.666125163549536
5.164948986034846
6.426267415065212
4.984768538210446
4.903503021072491
8.257650735591248
6.432507578095835
6.000794786739566
7.564702997253331
5.972735249030818
4.924771203331034
1.3979205180212513
3.922703028726799
3.850914402514122
5.307653421407925
7.262514205508684
5.254891317135988
8.671814064722305
5.610898270944305
5.1036360325538865
5.534253667724854
4.6270140319388915
7.395974693602956
4.704783639929235
7.571677330225957
4.843817727026018
2.996606698321406
5.350237259226598
3.7406257337659854
5.502537333739035
5.155720737520815
8.235307485455998
1.1479726443579095
5.7579644004057
5.048064456676276
5.656065293254143
6.068138929354836
5.429559689279155
6.518301204856383
4.24388775720741
3.7995517446627005
2.6048674494462483
3.2147210372962416
3.370328155869075
4.195896047120518
3.678212414706219
5.979629559251654
5.988872709802242
5.1162370666381385
3.6321186512407526
1.423228764355695
6.5995998164373635
1.949382067158623
4.995036028897134
5.953006130206134
6.043341502926729
3.33960093587784
6.476714414562592
1.1594443348753718
4.693638787795772
4.311227697215215
5.088649424351837
4.5520980693416995
5.038512043647932
4.884974076111662
6.759639473955995
8.72838276852972
4.66601053898363
5.107978147146553
7.198197012132574
5.141363424451667
3.9626933774421054
4.909911114682609
3.888686411542433
4.114258715044951
1.9064406537271825
5.526980883018789
5.047141903000583
5.355663947364415
5.469930905651565
2.2760975186475485
4.862803836861392
4.9194211491513835
4.920363812726356
4.495364972968748
2.8270591085653227
4.964574226415464
4.473311194019807
5.744604953734332
4.752513140196093
5.0654700587592565
4.938748824136972
2.5767373878734743
5.010394342662409
4.029549012580997
5.027462946193426
4.71937083279679
4.991180401393209
8.822084810531477
3.2410312938443773
2.8899917712341736
1.0060623131945463
5.143889067174325
2.1391717816569917
5.339739141958528
4.530895599410289
4.258782792586345
7.080013037383966
7.517655751770363
5.468119063791683
7.7465727536274605
7.81852843232344
7.22594462849746
4.514342436209598
8.847769758765548
5.959291165874565
4.293864039457879
5.629598454976644
6.096551191840048
4.830920080362209
5.06269049247543
4.6674359324265415
5.449345144360423
8.820209348690671
5.901810048294921
4.7268960248838425
4.671626761881467
5.390384815875575
4.20574201265493
3.4017416863814534
4.435244697572404
6.473032987127398
5.659926620319861
5.292876720348977
4.5492177929186735
8.792176208711268
3.9736056118822534
4.814548374210876
8.889028295304158
8.983723082712064
5.571658809332005
4.672442952605085
4.377628409295915
5.032554565931494
6.752464321180005
7.3325487646500855
3.8871861840767603
8.943885527215507
5.001145333075809
4.952222472329175
4.4298576894894985
5.094599109180363
7.346147269459516
4.7867424814866615
2.1861458422155353
6.374126242763767
5.3332232466839224
4.640293136629567
3.715980084430407
7.370634315537543
1.0059430468056143
7.577591005590076
5.464376105220015
5.209962810379247
5.0102214100831315
4.776704128440651
2.2437162557702046
5.786154608550537
5.216430218180038
2.938365194065035
4.929601992557746
8.772364973105493
4.335997243480601
7.547616837660278
3.846763605069199
3.5931003510794723
4.535108346029871
3.7929323383859312
4.428142732046196
4.995119319863571
6.393939961969157
3.2070098852898927
7.022949370532992
6.473554772102728
6.146111400383833
5.004595166486597
5.706934795432773
4.17099587157587
7.358946130692682
2.3626719347642844
6.500357970652454
1.1542222129372672
3.903752104284067
5.6156432695185865
5.423414964376601
5.460300190866573
8.974767678941966
5.706051661696905
4.955521905064862
1.977365555435585
5.206979128331625
6.110200023770314
8.985607932210408
2.0437155232700257
4.512311055715294
6.82486075567313
4.678334985638947
5.293067298965811
1.0098255098452937
4.492918896175851
2.914915862177736
5.06465184683309
4.99845245533792
4.606819927915674
5.621360462882475
4.97442809124965
3.117238850830453
5.298038918032084
4.8936022061357765
4.903838939471483
3.0486791867094425
5.114072972505535
5.076278247410325
2.373061608385046
1.9149076701162209
7.2889579779749685
4.251948276807173
2.0863798305947876
1.0538313891618167
3.2110853448915533
3.9220615920952007
7.711132860909063
7.4051116089946145
3.9824857000845792
5.0200282307164645
5.807070639031734
5.986204190615693
4.57744815968841
0.9337113554481549
7.863989469500778
4.268437473689948
5.204338159898378
5.008550935851169
5.043897224494498
6.7778225388939015
5.139788151073395
8.025452824807687
3.461149462242511
5.322620914898414
5.775650207163972
4.215113248347312
4.596694324721351
5.963337805341816
3.6201591546364624
4.849505036157522
1.0004756190682076
6.5819416505385995
5.480907427545227
7.668178288338548
4.962289673565816
5.714932566027078
5.365434072274978
1.6523982114978986
4.617265934436379
4.3771126840221655
5.379246055247466
3.4394858318521178
5.433241140528477
8.976119136956012
6.664651123952304
4.897183979411075
7.80511400952488
4.954932635650869
4.115832388138364
9.046318965715288
5.181070248278502
4.166742322639114
4.993040894140872
0.9532485435783881
5.983855891390104
3.5558984996650835
4.255836686029208
3.752533596809473
5.69022180727218
5.384323222129705
2.480329723663621
8.242464590266597
3.584057032977974
2.424422928656466
6.37233525984585
4.438156445297893
5.312360296423587
5.7446107405376985
2.356644748212003
0.9897306301562817
0.9511711764540723
5.555840669170549
4.07477341124184
6.356174503117324
0.9941557367496722
6.000737642023004
9.01461394109843
5.118821917557693
4.98623379137174
4.9068903342311545
6.356762968058863
4.2242446349868645
3.368398198306491
7.270324252348212
0.8812788211779068
3.4895562105554334
4.5973664440730255
4.940100479973107
3.4355195148215514
2.172437311120232
4.890498990790451
5.408884205737693
5.3864894410353665
8.779119025773007
9.012257408140428
6.444048945004311
6.5511434931724
3.460134866734281
7.750280819397093
6.140181069262786
9.074301821691396
6.019004326078368
9.081988355679062
4.919187623510425
6.299410688273309
3.030440158263029
5.07467485749149
4.983245232398609
5.03869763956904
0.9578195409417768
4.254552614396806
3.432455448273512
3.691285556241237
5.60634475137837
5.402885314830804
7.184326580750167
4.016398454732525
5.010124443973438
7.098292564106941
5.9408813134868685
4.342603225874552
6.359002358412977
5.438419072813236
4.9726570357756
9.06471591326783
2.796029651768697
4.875927351027706
5.841149186538541
5.754387725166427
6.607744410718299
9.090537214582936
4.172933835160777
4.381745391327288
9.138255909428596
5.718131100017991
4.174697058821458
5.029636717651086
4.778973283557366
4.3770316631249715
3.376382254705731
5.271286233346593
3.6144513029882
6.153411357103207
6.577724686472365
3.3190435508029723
8.2200775130632
4.952784613644335
6.367944505924952
5.5542902289466864
1.6511252228372393
5.429269477679009
3.2631115217732307
4.145037970815912
4.542355673549186
6.390812091805281
3.9261662575884446
6.281557916008076
5.004850490463155
6.957731751363468
6.465389592059313
4.490237049725805
4.9363550175218975
4.828888015362763
3.849858564213145
2.107674156764408
5.015321516645116
4.522450646233546
5.469223353941639
4.197442951829518
2.4626330410045703
5.00008464033562
3.642174141827174
4.668814461348892
2.3944663546353175
4.577449900036874
5.352478845817286
9.094277052149328
5.79072199023382
6.295351894637777
3.28683907628381
5.257767413066093
5.026510541733931
0.9080757352548878
2.2284697424732367
4.417200792496699
2.0074842375917403
7.638946841219038
4.452633524039319
5.180616165183554
5.2379967554088696
4.779228774187875
4.901448675050044
2.474527246562704
5.04115796596208
7.024437060304013
6.986247108576127
9.062311728800914
8.064603981424646
4.800398507332649
6.3369273160017086
5.004853313963541
5.000194038818104
5.486813928884698
4.726459722225231
0.856130490560116
4.495061121575359
5.072472868110075
3.6763701976031005
2.165312192066329
4.274669337089172
7.82529160354555
5.726785138816899
4.869333788616316
5.759263843243198
2.1956085568847405
5.492557078269385
0.8883370956752551
5.56206858298117
0.8669426950477293
4.6703834023099295
2.329312993691548
0.8603904649154425
4.681495677905014
0.8811144128912511
1.6430824329537634
4.995133669909138
5.242179968934866
4.9056651594793435
2.497704872171376
4.07351031049661
4.991807121532223
0.8791916872697282
4.641088977788083
4.348187958645979
5.103378339696632
3.2093747077737746
0.8117868244187961
4.4394226267241175
2.1310622652996334
4.819408273007498
6.743197089254665
5.788418116564417
5.192334388396978
7.92739324109088
5.9469147296552425
5.469619612308098
5.0825761971463095
3.952501717087721
3.4443106256915903
3.219941999320099
5.164795761408087
0.838754526778713
5.2370702520259105
5.220657858808028
4.9190325624216635
4.58006893873093
5.645184211589102
9.143980602116045
5.024439876995243
6.9654413597113995
2.393362981652127
4.989265371657861
6.9781013443520346
2.1766804335074514
3.4790051709747094
2.442106950984162
1.6212726157874648
3.9119687570931485
4.454360029392812
3.3379433415713353
5.831893597997045
6.810372445083372
5.290756899367185
8.236623134271273
6.212003194088685
9.14081526472228
6.364067025709388
4.858819070375722
5.905672599858132
2.684200320857414
4.864442216656358
2.9356560190155836
5.1484283059797455
5.339773297604443
5.670282157018167
4.425271854122857
0.8592033156380834
5.010569220632391
4.435172146980601
7.630077216192619
4.351164053522876
6.506586222376265
2.10219430408965
5.582242710261441
6.382636094967489
3.3277544487338995
5.387708004239996
4.979964204245398
2.7822589610800312
6.31107188626285
6.818595671931971
5.3395334246322275
9.073796543654693
4.679899622269716
4.950918237117585
4.704948055386625
4.916053654408649
4.48925630791932
5.717282913621023
5.673218149694794
2.73134810911414
5.666352743136841
4.531406825917161
4.919565722006512
6.155055490037275
5.025889538513459
3.0819778469272534
9.19415039072875
9.038552837629425
5.677850949807593
2.8241677681571464
5.1735697334321475
6.1112650782667295
5.243528792112438
4.588277744360463
5.068958694174939
3.9354161316851584
5.742071663406224
5.879602144696184
5.3738947245179185
3.493256053927353
5.645719500584665
8.16705037021665
7.001990844165559
3.6909887822950704
2.977115068673699
3.9100661260275906
4.166835901952696
6.717894474025016
4.074859226696176
5.95848480771225
4.889535845766775
4.718950551628285
4.835704431577314
7.479457868277091
3.9832454031005122
4.882570590651984
0.8079203608908684
3.381253742761284
6.931443114884878
3.5220336039238624
7.694222757560392
5.000610853606592
4.909415772082577
4.853471916292039
4.050967804422878
3.0838285107509744
4.9898022330125515
4.2797501880867985
1.8238693584547767
4.503369029150679
5.66256814548221
6.185291917334756
8.239814494303259
4.222157967235581
0.8083169720001651
5.202282950977475
5.2525327853244965
6.367326515233279
3.3302939018144158
5.091126297247383
3.7280198486383704
0.8324601050201269
1.9721440988178016
8.05476734617228
4.781164028845052
5.607450649516658
4.62585477235537
4.880792672549947
0.8020279397173862
5.7831373814163145
5.0041119870953805
4.234830246186238
7.606793981921956
4.07434697610275
4.2416800296305786
2.8127571723005422
5.397663716650741
7.976545168397958
7.858056905402717
6.1559771575554585
4.440420880764517
8.392113458864793
5.182892249703258
4.790360397533469
8.079347857675065
5.835820951163116
5.718599163224743
3.9728078727144682
1.7188141863158526
4.751939806523498
4.470355287056998
4.026597902087849