# vtk DataFile Version 1.0
2D Simulation C++
ASCII
DATASET UNSTRUCTURED_GRID
FIELD FieldData 1
NODES 1 2 int
14521 28612

POINTS 14521 double
0.0 0.0 0.0
0.0 10.0 0.0
32.5 10.0 0.0
32.5 5.0 0.0
32.5 0.0 0.0
13.0 5.0 0.0
0.0 0.2941176470586055 0.0
0.0 0.5882352941171234 0.0
0.0 0.8823529411757415 0.0
0.0 1.176470588234357 0.0
0.0 1.470588235292488 0.0
0.0 1.764705882350453 0.0
0.0 2.058823529408418 0.0
0.0 2.352941176466384 0.0
0.0 2.647058823524349 0.0
0.0 2.941176470582313 0.0
0.0 3.235294117640277 0.0
0.0 3.529411764698242 0.0
0.0 3.823529411756206 0.0
0.0 4.117647058814589 0.0
0.0 4.41176470587386 0.0
0.0 4.70588235293313 0.0
0.0 4.999999999992401 0.0
0.0 5.294117647051672 0.0
0.0 5.588235294110941 0.0
0.0 5.882352941170211 0.0
0.0 6.176470588229482 0.0
0.0 6.470588235288753 0.0
0.0 6.764705882348023 0.0
0.0 7.058823529407294 0.0
0.0 7.352941176466564 0.0
0.0 7.647058823525834 0.0
0.0 7.941176470585106 0.0
0.0 8.235294117644376 0.0
0.0 8.529411764703648 0.0
0.0 8.823529411762916 0.0
0.0 9.117647058822186 0.0
0.0 9.411764705881458 0.0
0.0 9.70588235294073 0.0
0.2981651376147483 10.0 0.0
0.5963302752294813 10.0 0.0
0.8944954128441965 10.0 0.0
1.192660550458881 10.0 0.0
1.490825688073508 10.0 0.0
1.788990825688125 10.0 0.0
2.087155963302878 10.0 0.0
2.385321100917831 10.0 0.0
2.683486238532852 10.0 0.0
2.981651376147873 10.0 0.0
3.279816513762893 10.0 0.0
3.577981651377914 10.0 0.0
3.876146788992889 10.0 0.0
4.174311926607628 10.0 0.0
4.472477064222242 10.0 0.0
4.770642201836855 10.0 0.0
5.068807339451469 10.0 0.0
5.366972477066083 10.0 0.0
5.665137614680697 10.0 0.0
5.963302752295311 10.0 0.0
6.261467889909925 10.0 0.0
6.559633027524539 10.0 0.0
6.857798165139153 10.0 0.0
7.155963302753767 10.0 0.0
7.454128440368381 10.0 0.0
7.752293577982995 10.0 0.0
8.050458715597609 10.0 0.0
8.348623853212223 10.0 0.0
8.646788990826836 10.0 0.0
8.94495412844145 10.0 0.0
9.243119266056064 10.0 0.0
9.541284403670678 10.0 0.0
9.83944954128529 10.0 0.0
10.1376146788999 10.0 0.0
10.43577981651452 10.0 0.0
10.73394495412913 10.0 0.0
11.03211009174375 10.0 0.0
11.33027522935836 10.0 0.0
11.62844036697297 10.0 0.0
11.92660550458759 10.0 0.0
12.2247706422022 10.0 0.0
12.52293577981682 10.0 0.0
12.82110091743143 10.0 0.0
13.11926605504605 10.0 0.0
13.41743119266066 10.0 0.0
13.71559633027527 10.0 0.0
14.01376146788989 10.0 0.0
14.3119266055045 10.0 0.0
14.61009174311912 10.0 0.0
14.90825688073373 10.0 0.0
15.20642201834834 10.0 0.0
15.50458715596296 10.0 0.0
15.80275229357757 10.0 0.0
16.10091743119218 10.0 0.0
16.3990825688068 10.0 0.0
16.69724770642141 10.0 0.0
16.99541284403603 10.0 0.0
17.29357798165064 10.0 0.0
17.59174311926525 10.0 0.0
17.88990825687987 10.0 0.0
18.18807339449448 10.0 0.0
18.48623853210909 10.0 0.0
18.78440366972371 10.0 0.0
19.08256880733832 10.0 0.0
19.38073394495293 10.0 0.0
19.67889908256754 10.0 0.0
19.97706422018216 10.0 0.0
20.27522935779677 10.0 0.0
20.57339449541138 10.0 0.0
20.87155963302599 10.0 0.0
21.1697247706406 10.0 0.0
21.46788990825521 10.0 0.0
21.76605504586983 10.0 0.0
22.06422018348444 10.0 0.0
22.36238532109905 10.0 0.0
22.66055045871366 10.0 0.0
22.95871559632827 10.0 0.0
23.25688073394288 10.0 0.0
23.55504587155749 10.0 0.0
23.85321100917211 10.0 0.0
24.15137614678672 10.0 0.0
24.44954128440133 10.0 0.0
24.74770642201594 10.0 0.0
25.04587155963055 10.0 0.0
25.34403669724516 10.0 0.0
25.64220183485978 10.0 0.0
25.94036697247438 10.0 0.0
26.238532110089 10.0 0.0
26.5366972477036 10.0 0.0
26.83486238531822 10.0 0.0
27.13302752293283 10.0 0.0
27.43119266054744 10.0 0.0
27.72935779816205 10.0 0.0
28.02752293577667 10.0 0.0
28.32568807339127 10.0 0.0
28.62385321100589 10.0 0.0
28.9220183486205 10.0 0.0
29.22018348623511 10.0 0.0
29.51834862384972 10.0 0.0
29.81651376146434 10.0 0.0
30.11467889907894 10.0 0.0
30.41284403669356 10.0 0.0
30.71100917430817 10.0 0.0
31.00917431192278 10.0 0.0
31.30733944953739 10.0 0.0
31.605504587152 10.0 0.0
31.90366972476661 10.0 0.0
32.20183486238237 10.0 0.0
32.5 9.704670932249275 0.0
32.5 9.40934186449855 0.0
32.5 9.119724688466377 0.0
32.5 8.843554074514566 0.0
32.5 8.580208926166412 0.0
32.5 8.329033426013027 0.0
32.5 8.089398249298329 0.0
32.5 7.860698623560229 0.0
32.5 7.642352095094644 0.0
32.5 7.433796399747433 0.0
32.5 7.234487076551145 0.0
32.5 7.043894845848946 0.0
32.5 6.861502922847221 0.0
32.5 6.686804005096128 0.0
32.5 6.519296609419547 0.0
32.5 6.358481287304047 0.0
32.5 6.203856309284161 0.0
32.5 6.054912477284352 0.0
32.5 5.911127605902981 0.0
32.5 5.771960797335053 0.0
32.5 5.636846224632778 0.0
32.5 5.505187804642507 0.0
32.5 5.376355306795872 0.0
32.5 5.249683025653217 0.0
32.5 5.124472555996909 0.0
32.5 4.87552744400309 0.0
32.5 4.750316974346781 0.0
32.5 4.623644693204131 0.0
32.5 4.494812195357495 0.0
32.5 4.363153775367226 0.0
32.5 4.228039202664948 0.0
32.5 4.088872394097016 0.0
32.5 3.945087522715645 0.0
32.5 3.796143690715835 0.0
32.5 3.641518712695949 0.0
32.5 3.480703390580449 0.0
32.5 3.313195994903866 0.0
32.5 3.138497077152773 0.0
32.5 2.956105154151047 0.0
32.5 2.765512923448848 0.0
32.5 2.566203600252559 0.0
32.5 2.357647904905347 0.0
32.5 2.139301376439767 0.0
32.5 1.910601750701668 0.0
32.5 1.670966573986973 0.0
32.5 1.419791073833593 0.0
32.5 1.156445925485432 0.0
32.5 0.8802753115336266 0.0
32.5 0.5906581355014486 0.0
32.5 0.2953290677507248 0.0
32.20183486238238 0.0 0.0
31.90366972476663 0.0 0.0
31.60550458715203 0.0 0.0
31.30733944953742 0.0 0.0
31.00917431192282 0.0 0.0
30.71100917430822 0.0 0.0
30.41284403669362 0.0 0.0
30.11467889907901 0.0 0.0
29.81651376146441 0.0 0.0
29.51834862384981 0.0 0.0
29.2201834862352 0.0 0.0
28.9220183486206 0.0 0.0
28.623853211006 0.0 0.0
28.3256880733914 0.0 0.0
28.02752293577679 0.0 0.0
27.72935779816219 0.0 0.0
27.43119266054759 0.0 0.0
27.13302752293298 0.0 0.0
26.83486238531838 0.0 0.0
26.53669724770378 0.0 0.0
26.23853211008917 0.0 0.0
25.94036697247457 0.0 0.0
25.64220183485996 0.0 0.0
25.34403669724536 0.0 0.0
25.04587155963076 0.0 0.0
24.74770642201615 0.0 0.0
24.44954128440155 0.0 0.0
24.15137614678694 0.0 0.0
23.85321100917234 0.0 0.0
23.55504587155774 0.0 0.0
23.25688073394313 0.0 0.0
22.95871559632853 0.0 0.0
22.66055045871393 0.0 0.0
22.36238532109932 0.0 0.0
22.06422018348472 0.0 0.0
21.76605504587012 0.0 0.0
21.46788990825551 0.0 0.0
21.16972477064091 0.0 0.0
20.87155963302631 0.0 0.0
20.5733944954117 0.0 0.0
20.2752293577971 0.0 0.0
19.9770642201825 0.0 0.0
19.6788990825679 0.0 0.0
19.38073394495329 0.0 0.0
19.08256880733868 0.0 0.0
18.78440366972408 0.0 0.0
18.48623853210948 0.0 0.0
18.18807339449488 0.0 0.0
17.88990825688027 0.0 0.0
17.59174311926567 0.0 0.0
17.29357798165107 0.0 0.0
16.99541284403646 0.0 0.0
16.69724770642186 0.0 0.0
16.39908256880725 0.0 0.0
16.10091743119265 0.0 0.0
15.80275229357805 0.0 0.0
15.50458715596345 0.0 0.0
15.20642201834884 0.0 0.0
14.90825688073424 0.0 0.0
14.61009174311963 0.0 0.0
14.31192660550503 0.0 0.0
14.01376146789042 0.0 0.0
13.71559633027582 0.0 0.0
13.41743119266122 0.0 0.0
13.11926605504662 0.0 0.0
12.82110091743201 0.0 0.0
12.52293577981741 0.0 0.0
12.22477064220281 0.0 0.0
11.92660550458821 0.0 0.0
11.62844036697361 0.0 0.0
11.33027522935901 0.0 0.0
11.03211009174441 0.0 0.0
10.7339449541298 0.0 0.0
10.4357798165152 0.0 0.0
10.1376146789006 0.0 0.0
9.839449541286001 0.0 0.0
9.541284403671398 0.0 0.0
9.243119266056798 0.0 0.0
8.944954128442202 0.0 0.0
8.646788990827599 0.0 0.0
8.348623853212999 0.0 0.0
8.050458715598396 0.0 0.0
7.752293577983796 0.0 0.0
7.454128440369193 0.0 0.0
7.155963302754593 0.0 0.0
6.85779816513999 0.0 0.0
6.559633027525393 0.0 0.0
6.26146788991079 0.0 0.0
5.963302752296187 0.0 0.0
5.665137614681587 0.0 0.0
5.366972477066984 0.0 0.0
5.068807339452384 0.0 0.0
4.770642201837781 0.0 0.0
4.472477064223181 0.0 0.0
4.174311926608581 0.0 0.0
3.876146788993982 0.0 0.0
3.577981651379378 0.0 0.0
3.279816513764779 0.0 0.0
2.981651376150179 0.0 0.0
2.683486238535576 0.0 0.0
2.385321100920976 0.0 0.0
2.087155963306376 0.0 0.0
1.788990825691776 0.0 0.0
1.490825688077173 0.0 0.0
1.19266055046257 0.0 0.0
0.8944954128479665 0.0 0.0
0.5963302752333668 0.0 0.0
0.298165137617616 0.0 0.0
12.99937846060976 5.024922942824306 0.0
12.99751538768329 5.049783923292 0.0
12.99441541311343 5.074521133082333 0.0
12.9900862439254 5.099073071594094 0.0
12.98453864311594 5.123378698839655 0.0
12.97778640289475 5.1473775872 0.0
12.96984631039484 5.171010071657642 0.0
12.96073810593722 5.194217398132568 0.0
12.95048443395334 5.216941869554349 0.0
12.93911078668734 5.239126989306574 0.0
12.92664544081843 5.260717601685897 0.0
12.91311938716051 5.281660029028131 0.0
12.89856625361406 5.301902205159314 0.0
12.88302222156224 5.321393804839989 0.0
12.86652593591789 5.340086368882249 0.0
12.84911840904608 5.357933424626895 0.0
12.83084291880141 5.374890601481234 0.0
12.81174490093244 5.390915741231562 0.0
12.79187183612062 5.405969002855607 0.0
12.77127313193625 5.42001296157321 0.0
12.75000000000368 5.433012701890096 0.0
12.72810532868064 5.444935904403652 0.0
12.70564355156948 5.455752926153954 0.0
12.68267051218724 5.465436874320517 0.0
12.65924332512987 5.473963673082213 0.0
12.63542023407562 5.481312123473847 0.0
12.6112604669825 5.487463956089922 0.0
12.58682408883806 5.492403876505294 0.0
12.5621718523285 5.49611960329949 0.0
12.53736504679821 5.498601898590215 0.0
12.512465345874 5.499844591000285 0.0
12.48753465413557 5.499844591000523 0.0
12.46263495321133 5.49860189859093 0.0
12.43782814768099 5.49611960330068 0.0
12.41317591117137 5.492403876506956 0.0
12.38873953302684 5.487463956092052 0.0
12.36457976593359 5.48131212347644 0.0
12.34075667487921 5.473963673085262 0.0
12.31732948782167 5.465436874324014 0.0
12.29435644843925 5.455752926157889 0.0
12.27189467132783 5.444935904407994 0.0
12.25000000000449 5.433012701894812 0.0
12.22872686807166 5.420012961578315 0.0
12.20812816388707 5.405969002861141 0.0
12.18825509907505 5.390915741237538 0.0
12.1691570812058 5.374890601487596 0.0
12.15088159096094 5.357933424633736 0.0
[...]
POINT_DATA 14521
SCALARS Psi double
LOOKUP_TABLE default
0.0
10.0
9.684721542379249
4.996605305632745
0.0
5.0
0.2941176470586055
0.5882352941171234
0.8823529411757415
1.176470588234357
1.470588235292488
1.764705882350453
2.058823529408418
2.352941176466384
2.647058823524349
2.9411764705823136
3.235294117640277
3.5294117646982426
3.823529411756206
4.117647058814589
4.41176470587386
4.70588235293313
4.999999999992401
5.294117647051672
5.588235294110941
5.882352941170211
6.176470588229482
6.470588235288753
6.764705882348023
7.058823529407294
7.352941176466565
7.647058823525834
7.9411764705851065
8.235294117644376
8.529411764703648
8.823529411762916
9.117647058822186
9.411764705881458
9.70588235294073
10.0
10.0
10.0
10.0
10.0
10.0
10.0
10.0
10.0
10.0
10.0
10.0
10.0
10.0
10.0
10.0
10.0
10.0
10.0
10.0
10.0
10.0
10.0
10.0
10.0
10.0
10.0
10.0
10.0
10.0
10.0
10.0
10.0
10.0
10.0
10.0
10.0
10.0
10.0
10.0
10.0
10.0
10.0
10.0
10.0
10.0
10.0
10.0
10.0
10.0
10.0
10.0
10.0
10.0
10.0
10.0
10.0
10.0
10.0
10.0
10.0
10.0
10.0
10.0
10.0
10.0
10.0
10.0
10.0
10.0
10.0
10.0
10.0
10.0
10.0
10.0
10.0
10.0
10.0
10.0
10.0
10.0
10.0
10.0
10.0
10.0
10.0
10.0
10.0
10.0
10.0
10.0
10.0
10.0
10.0
10.0
10.0
10.0
10.0
10.0
10.0
10.0
10.0
10.0
10.0
10.0
10.0
10.0
9.477980649836608
9.324616690313102
9.118999087473684
8.833233192664105
8.564878977817411
8.31498132428728
8.077183180681608
7.849795826531407
7.632419406235881
7.424704464248208
7.226141751520303
7.036184415438504
6.8543417337530865
6.6801218025336055
6.5130313223259
6.352586129702698
6.198296866309205
6.049662522774538
5.906162580733478
5.767260488333901
5.632392955428642
5.5009667296745635
5.372353681520252
5.245890955406306
5.120882126182013
4.872323662221936
4.74730059359115
4.6208141093738995
4.492167148730585
4.360694990560989
4.225768493372063
4.086793075250847
3.9432037199686074
3.7944608632607495
3.6400434605278584
3.4794429854507922
3.3121586620686743
3.13769263147734
2.9555453330195003
2.7652186269653973
2.5662043004627417
2.3579781180651183
2.1399812261378153
1.9116592745900187
1.6725695168553412
1.422129078061024
1.15999989005882
0.8893594475144687
0.6090681690153054
0.3115097680393722
0.0
0.0
0.0
0.0
0.0
0.0
0.0
0.0
0.0
0.0
0.0
0.0
0.0
0.0
0.0
0.0
0.0
0.0
0.0
0.0
0.0
0.0
0.0
0.0
0.0
0.0
0.0
0.0
0.0
0.0
0.0
0.0
0.0
0.0
0.0
0.0
0.0
0.0
0.0
0.0
0.0
0.0
0.0
0.0
0.0
0.0
0.0
0.0
0.0
0.0
0.0
0.0
0.0
0.0
0.0
0.0
0.0
0.0
0.0
0.0
0.0
0.0
0.0
0.0
0.0
0.0
0.0
0.0
0.0
0.0
0.0
0.0
0.0
0.0
0.0
0.0
0.0
0.0
0.0
0.0
0.0
0.0
0.0
0.0
0.0
0.0
0.0
0.0
0.0
0.0
0.0
0.0
0.0
0.0
0.0
0.0
0.0
0.0
0.0
0.0
0.0
0.0
0.0
0.0
0.0
0.0
0.0
0.0
5.0
5.0
5.0
5.0
5.0
5.0
5.0
5.0
5.0
5.0
5.0
5.0
5.0
5.0
5.0
5.0
5.0
5.0
5.0
5.0
5.0
5.0
5.0
5.0
5.0
5.0
5.0
5.0
5.0
5.0
5.0
5.0
5.0
5.0
5.0
5.0
5.0
5.0
5.0
5.0
5.0
5.0
5.0
5.0
5.0
5.0
5.0
5.0
5.0
5.0
5.0
5.0
5.0
5.0
5.0
5.0
5.0
5.0
5.0
5.0
5.0
5.0
5.0
5.0
5.0
5.0
5.0
5.0
5.0
5.0
5.0
5.0
5.0
5.0
5.0
5.0
5.0
5.0
5.0
5.0
5.0
5.0
5.0
5.0
5.0
5.0
5.0
5.0
5.0
5.0
5.0
5.0
5.0
5.0
5.0
5.0
5.0
5.0
5.0
5.0
5.0
5.0
5.0
5.0
5.0
5.0
5.0
5.0
5.0
5.0
5.0
5.0
5.0
5.0
5.0
5.0
5.0
5.0
5.0
5.0
5.0
5.0
5.0
5.0
5.0
5.132960089932599
6.881175240009625
3.277707747163298
4.900220608126242
2.4974606584472183
2.6430302541746666
4.398285663287095
6.849041470289201
7.523445314301221
4.936566814221088
4.852107121153165
5.063178506115254
6.139573876042724
3.9519730370168227
6.869821630440549
5.059333238412921
5.475345847608544
3.3774386503498186
3.9247285017906033
4.90376796300766
6.856572364723815
4.422858398208682
6.907507806028215
4.423805997621722
4.732462714658592
6.371070451573712
3.85951175027392
7.2283417160976695
6.041159103943427
5.7630616489459054
7.343342659048468
2.661468654086629
2.9125663710104943
2.6277180856332154
5.7319349226096525
2.470526205214812
4.118374676203569
3.173307053943926
4.477004059740109
4.206611247678787
4.521180335884146
4.567354780392712
7.549310106792449
5.623025575255884
5.645071134522575
5.244537819973084
6.273968009085847
5.606601521348233
5.727101880438185
3.395578466774678
6.916278870734284
4.340992915209683
5.195848342859469
4.49143085956778
6.02599702638619
4.4169694987397925
5.740927857589205
7.309023361206791
5.818765708222027
4.530624265800104
2.2907545149443647
3.18754030425349
5.671395748514036
3.7538125966973315
4.914662453545029
4.401421589511127
2.704844340807389
5.605352252518204
2.8517823304003738
3.6598894388346133
5.543608595471898
5.4279244336341765
4.408348605803634
4.864923714521394
7.415712961039573
4.496433913379688
3.6488781743053726
5.429517031731533
2.3225494025871942
5.426770785444483
5.335217098117136
6.216135546534764
6.040186074030222
5.40971923123829
3.9867940089998513
6.324497880339142
5.751149639496986
4.773271262345084
4.548736054659299
1.992483680981679
3.318518651918739
4.571843737361239
2.6209356084739386
6.759310605095418
5.232673440971075
6.112189676747716
5.079548511866285
3.5961968741094625
4.336000453213479
4.2563504586568985
6.856470715811324
7.348829170043405
5.601539120514349
6.60066709870339
8.167360339080318
4.942171307821043
3.4943593232845913
8.363572845260798
1.7144904155160197
5.20294141940791
4.921014894297217
8.362003076719686
5.14274551167765
5.251552114394859
4.784458131561406
5.032129176254982
4.593542587027086
4.886259118024103
5.978054710045977
5.035416499308464
7.764551086623446
3.533167947124379
4.897331279351872
3.6158356620101166
5.880000626084888
3.663930248060442
5.378610821520701
5.372266480042861
1.704414999880406
8.300236872696162
1.6204181909245277
8.19984502238183
7.827391005756523
2.125457834039955
5.215584400286701
5.168109008620779
4.347360438790387
3.6663607096861233
8.371462603578376
8.34575799858699
3.7510916310577014
1.6134672154195449
5.064303887987497
4.187613087684914
4.695360229912766
4.522997394981363
1.5776313883200659
4.491527201008399
3.7489211069347332
5.020692656866006
8.311373933267415
5.141756447506092
2.8610196312208394
5.4997402803575755
4.189263741776383
4.692912082371358
5.264907970339766
8.130399368489936
3.473289033548984
4.162384865971938
5.127932341683602
1.5417229639210615
4.468463345740538
4.920171126240007
6.595075958473075
3.5922689788345012
5.89366312585419
6.622526741099669
8.504123514953307
3.7745658081636884
4.416731857032096
6.136531102447632
6.069983996299837
7.241544533711765
6.131516102550469
4.31156261526395
1.5009719210094163
2.6744083629771085
7.716539325676435
4.46913687251453
5.236137841834503
1.45123162676065
5.811939584788187
3.505566687582418
4.227171748810329
4.939583534364386
6.072729373274341
4.280138561783231
6.071606179715684
5.58484435213244
6.812534600763015
4.598566857899041
6.204334515060008
3.0342985040169133
4.877507168142174
4.91685115530637
4.788429214743363
1.6647576446900179
4.396589642097576
6.333016217414989
5.161644643676747
2.1891224006697025
1.5235133767997533
8.59274177620724
1.3699085232666812
7.084701917723197
4.850951915587197
6.577738240824936
8.597882703175692
3.6858917276508523
8.338700056713094
5.417523819951724
5.641906305862525
1.5017155417984038
6.574190387054462
6.825566847815633
5.705414253578942
5.172906104361381
2.756174296397213
1.2606060437672482
5.678980244352543
5.064667151215638
7.129400963127298
4.788429668047163
1.2263266030147388
5.253790212858673
4.099699000570026
6.988413345267768
6.065065327803794
1.3267666645424303
5.841469529997144
3.1122843370585325
2.625812462650139
3.314582353373177
5.406121609295514
7.916088678249461
3.2829988307713305
6.325134980807556
4.279415202873088
4.004610221843317
5.0943333432091205
8.778959844175278
5.346101472216132
5.54520219229501
3.568275956347354
4.720099473404492
5.153956035719332
8.711076803181388
4.932531075687219
6.462712075329745
4.8524753406657775
6.102679231632544
4.910106014770224
5.414785005608157
4.924514279245187
4.985184562182926
5.102583504135866
5.415892296035577
5.432411715291087
6.211847881400964
4.141287153473953
3.921120014843257
4.706681584777225
1.275291114939665
4.031583200731571
8.528057225160415
7.024600387299464
4.720296054397735
4.8504187565576595
2.2763922812762476
5.004456801738722
4.922782303110098
4.8068555445844865
5.4606932675674855
2.4294212301532387
1.4639413154981
3.756607672498259
3.200455761544702
3.9915784989083516
3.7321134420102298
7.226013845387293
6.5456510347677
2.779616338986126
7.66061695139786
2.8179223641774613
2.6799177437513335
5.348019311175221
5.995773538647822
4.86936865283059
7.431876533083169
1.6041571023000065
2.8784969225452217
2.7013765492627715
6.145832091753563
4.992722133277948
4.759118218867811
5.0511095514390325
4.331556095745042
2.6592206356848664
3.8171738568614892
5.006906850202601
4.602185523364672
4.82444134675872
8.670646823008504
4.998887561926687
6.705854034297914
4.983933336987123
4.901224879402624
8.384075094098977
6.601027235280465
6.285054358965493
7.730398313746401
6.1312829915723785
4.450706688494485
1.3978058260293074
3.8023620521892068
3.6683406465260933
5.646980129076202
7.423653094171888
5.680808871797526
8.820145555497707
5.7101522465068015
5.535056492665392
5.977227042895819
4.448955156987455
7.447041861814262
4.347188599217883
7.74664417908
4.825029835415605
2.8381721976217613
5.801584947895029
3.703951776136479
5.444030371714088
5.184619826150722
8.34291560431222
1.1382149135652553
6.005135541007436
4.673918850733892
5.659717998199508
6.0844650933845275
5.276790081164151
6.518710934084742
3.98149510171995
3.5782676141942997
2.5556266043811426
2.927019551774342
3.1370142753964116
4.145457861822452
3.3202142131823433
6.1575183890067775
6.01724449958002
5.117599953085613
3.6277871693556305
1.4207615385368797
6.726727648286531
1.8302001817428029
5.094131140426345
6.261650565970855
6.381900959203896
3.3390700598160405
6.593413816226512
1.0685920253838512
4.216249591945149
3.984136044403804
5.1683930690330975
4.610017990480885
5.037924823260692
4.8196380511009576
6.990187710510036
8.728404988720103
4.850691732164009
5.367004180005214
7.346296354083534
5.153496673157456
3.6149035079306637
4.909809305179957
3.902849874636896
3.8675476943670706
1.7582972850310108
5.544314740711131
4.913553403141042
5.43954268927521
5.697626838922985
2.1820850466499087
4.7917224912585334
4.758177984437958
5.1272740294154024
4.1489983540826785
2.8057746653540043
5.015813656046321
4.748829067205997
5.724977545431393
4.649466398055015
4.864671140848128
4.632810915909948
2.3870554220962723
5.272863041602457
3.9628509433598675
4.8334544693850665
4.7426547931007645
5.096887821035151
8.9122181109776
2.9082762694016644
2.8879771581556364
0.9631638433329824
5.3032089455705504
1.995455783827704
5.260960954743293
4.601965492451232
3.8516474359284025
7.080016036064992
7.7721278485492835
5.547605072977688
7.77064605719164
7.9715044636176025
7.426196061967024
4.585832415629229
8.92101090422662
6.032113739281971
4.194157124000982
5.704595060737377
6.347804224996352
4.740436159848892
5.250974450751093
4.709947944512495
5.423578724744064
8.820691282636592
6.116570702694555
4.417945791766711
4.684093165976454
5.545407827692752
3.998738330363197
3.081445389552934
4.702283173278509
6.705212118461833
6.067582956509372
5.490051704147708
4.577699499978768
8.808332381450425
4.131798892942132
4.68569643065819
8.889113063294415
9.01379739208441
5.571517385521248
4.64371453630429
3.9968316374862205
4.685119061700977
6.93565644751352
7.332676165589912
3.8663965993300557
9.011997099096936
5.363024084607618
5.308453100542433
4.3539938172180275
5.460203851250595
7.5636090901495585
4.505777707241822
2.1193957423824767
6.658973654285375
5.472274090086261
4.186655856730744
3.3128410908672605
7.372756902299746
0.9395454388852197
7.716790264974979
5.722493034054902
5.433783709620449
5.06169617420486
4.413703521003094
2.093982341743162
6.192978155488228
5.564235102759208
2.6570406412051186
4.842052279626854
8.854609547838292
4.094612699076248
7.74166862546696
3.9867465476606734
3.468694523561979
4.760630078595074
3.4337226105902494
4.057520022175934
5.029007369621972
6.649538277898629
3.234486280129236
7.26507903333598
6.685572158332347
6.190518882875935
4.974961612687097
5.843059679128308
3.752579721900039
7.359329767218461
2.230230557574224
6.513828131356251
1.1539640684391348
3.8320228859640837
5.879459561618569
5.676764676335189
5.748209965288205
9.033929110641553
5.78002931503004
4.951294782416007
1.8205242683335328
5.21995408666932
6.34296212437222
9.041770760358213
2.0232277704621353
4.04676239377493
7.175160318258895
4.6606513115495165
5.292689841647858
0.9434765978025296
4.4739901766847385
2.873527759073705
5.067154651581578
4.90551401373156
4.420148634097477
5.79193807916493
4.778190398671331
3.0459086733174225
5.349313337708289
4.894749253819325
4.904210367886384
3.037180992649841
5.112064305214613
5.073676567121689
2.145323602494708
1.7451646892038337
7.4819329183222045
4.408571548679516
2.044421480340813
0.9662041329213591
3.2296088806285326
3.5147279262783395
7.861580428226776
7.492984320260992
3.981267405589516
5.104589834970787
6.0212079192320624
6.08831829718247
4.083269640894379
0.9097819502000942
7.87253168457012
4.1210939696708975
4.9660161666535725
4.791587220826517
4.741619913744258
7.124346997658587
5.145629850029469
8.175791492806042
3.2308274715325496
5.254828606122357
6.031040712476705
4.076776116768971
4.168231020643032
6.036034123855363
3.555510920316885
4.523092825745105
0.9189482187201831
6.810801015346217
5.615849492624426
7.777436105194812
5.300151452603365
5.905534448797945
5.774822703421888
1.4909979764522665
4.589016726268175
4.328620500181112
5.4773763006097695
3.280224019496481
5.451939539872243
9.046874977873776
6.800639590384671
4.893902113826722
7.918066838441551
4.956142747701665
4.069465222859802
9.106538742388436
5.180508871411307
4.074726105038985
4.991715031721049
0.9168261986460688
6.363776824471578
3.2100826383722434
4.041071256474681
3.518763173321594
6.042059806361709
5.222099092047952
2.479596330319931
8.450610945199623
3.311029327528553
2.2851572188784917
6.48091843877883
4.370807093427733
5.284412882201158
6.080250065716606
2.3565326651538907
0.9024657419117216
0.8922456626563696
5.555663005889399
4.041278161866776
6.658045441951793
0.9035644408773116
6.275437983899431
9.097634677153723
5.268912480916715
5.1903455237225575
4.73870094305154
6.645023783685731
4.2147830426778015
3.1268740711162746
7.287261792002283
0.8621439214258073
3.3359081770054515
4.386891905243046
5.124364800991004
3.154656466537945
1.9915865483721253
5.108105178927372
5.385433357941927
5.720457600019154
8.830980311572787
9.08734871667539
6.444040811894939
6.7968028357962815
3.1619923478475593
7.8792878377532665
6.428795398898392
9.131750825921662
6.298116563807964
9.082784244815322
5.052437422328645
6.3860670622725575
2.7870589105682826
5.110847490184051
5.2102477255709285
5.180104277370433
0.9571933483787415
4.278057522096088
3.29230453746152
3.77832817842472
5.964215814197468
5.662000988464644
7.382654469199276
4.0162941322130346
5.267069958220979
7.134577852261612
6.120097699839362
4.150941904674799
6.513452873290251
5.460640276563142
4.90146849784331
9.128748249723305
2.5451338339021636
4.8714565703182195
6.033492241036507
5.755151838069883
6.610315800645232
9.096133839661125
4.3831963931845195
3.9498541797935403
9.155635877850116
5.75235722397067
4.091917107617674
5.086376561132181
4.4075930816245865
3.992915829988137
3.020288538144743
5.1027555996932525
3.554793713539879
6.284229708448923
6.7501151328546785
3.082410013353622
8.347898670941296
4.949405912268528
6.395105278574061
5.9345104318531074
1.6422406642749954
5.637939853235647
3.1635687523909617
3.917409008710371
4.336527885294933
6.699324147430063
3.9254966284135833
6.287885658917566
4.944080764464875
7.1121291597277265
6.529444754334857
4.477295697465877
5.16728255777186
4.4160688043061604
3.594699582744411
1.9912167514309282
5.382418487172622
4.360767067241635
5.567912815780538
3.7290031582294203
2.311018776554423
5.066380890021729
3.5368660467262063
4.448449012342479
2.240695613012572
4.478371214736585
5.798088446114966
9.159733187591618
5.790682031365866
6.685890864281765
3.11938858871779
5.119637827029601
4.736177510147224
0.9069763239725253
2.19309258094728
4.413534447570358
1.872419133502516
7.785619431905604
4.1405046943399
5.643841561545017
5.247574268243264
4.6680148483205715
4.88850332141385
2.281346414911459
5.037984061286944
7.304844521634051
7.172967929362175
9.154856614292859
8.180574425352926
4.557125144753656
6.459903761773045
4.993059996356334
5.05328819853632
5.716018097080803
4.710152387977463
0.8517474427709756
4.38496620467956
4.937197438223233
3.423857906434687
2.162901945132912
4.272838168714277
7.884594044322218
6.027450266215223
4.857370335717254
5.985618612962241
2.1653107973246986
5.754053815477491
0.8743321534737155
5.595207828766625
0.7951759746813069
4.58070273904743
2.328098361793618
0.8580526698616502
4.645855454912222
0.8252442212012202
1.5580836734003507
5.034774300051889
5.631386223624772
4.905621358837315
2.2881579509544894
3.9178931370601586
4.989439661656882
0.8159282394737317
4.597440834195987
4.2826082943881705
5.4184016672690705
3.160202684244729
0.8011125323886502
4.319803024498292
1.9474968944381243
4.811103677309763
7.0246577494189335
5.788513517429363
5.383989408183327
7.927405860423001
6.076795889066024
5.804818194894405
5.103083890496352
3.5888104167559107
3.2773236168471116
2.9925500253849417
4.882456616970512
0.8123912139903752
5.239704910369844
5.303098853302701
4.625264777023534
4.582016914743767
5.96659960928249
9.145952632978622
4.840462655165572
6.966505673240371
2.1940654563298456
5.321383129141585
7.117566393639723
2.171489825923482
3.478686186531576
2.25064334200883
1.5621618148902652
3.819513477386735
4.148474683039144
3.297966709715126
5.898018314470666
6.816179618125163
5.230964076575394
8.329375352384933
6.405379524150277
9.141018587482256
6.58947466356234
4.6241604027985765
5.94125582093309
2.4947039300938254
4.713391279315997
2.9141236007071325
5.14827696053175
5.442551891085111
5.801004231956071
4.372375182902175
0.7772219913728057
5.009519981493029
4.196949753940401
7.745489852414136
4.315362384778686
6.652281772052294
1.8943177235464745
5.674491876554426
6.579729493443467
3.028643293333322
5.361816069837391
4.981059627844188
2.621964256073917
6.4518840058720475
6.998117460894458
5.399432612831038
9.201502859305835
4.319132955286333
4.612401089112776
4.243384951755599
4.543420553805916
4.4212554304749005
5.710702045466649
5.704776072792621
2.7153264843343545
5.837623080885565
4.1187615653140695
4.896874735445862
6.430616620083636
5.093618674075977
2.7755064903593296
9.194183441368866
9.095395898748057
5.779571849280622
2.6971798803478326
4.919596128479882
6.292496064638273
5.629107431441022
4.587629339784907
5.061678832444558
3.5427446455310054
5.980297001757117
5.99977510122606
5.3748002341881715
3.472296849373837
5.656178492065297
8.170757202207167
7.002007888818279
3.303815521164644
2.7366565831276186
4.064527463632306
3.959969598500656
6.932824644000669
3.875461341502388
6.346908088386882
4.735838540974513
5.038048825387398
4.826245189515041
7.766408405598885
3.9687133115635866
5.1214460161336435
0.8078077749392163
3.1411652415600604
6.992416754580342
3.322916018561351
7.729384708124929
4.997725165896961
5.160009031368163
4.9094312824696
4.197845147707985
2.9650761310914473
4.626115653464375
4.010514771937599
1.6509666991339125
4.787738110403753
5.951269505714459
6.491139854154016
8.364401935924501
4.437686122777968
0.808277607385073
5.212978521157167
5.140047699657431
6.639779318839058
3.327048533258302
5.514380492480288
3.682133224185661
0.7874228287011561
1.8221853739969889
8.055310611093645
4.853155294472582
5.806594937487534
4.694650661833322
4.8935615713292835
0.74436740526139
6.143182568536597
4.9747032706767405
4.232335880991564
7.791814793398788
4.1554083985205725
4.241254377147362
2.615280303747993
5.379621084010881
8.19665102418588
8.010966171085844
6.2638709774961905
4.605403383958493
8.482198966158162
5.021437542731908
4.60153333265603
8.079487549650143
5.844811940511849
6.018436784564342
3.851803736217776
1.5766564791036835
4.260978310334931
4.183883516554143
3.8733879803783675