# vtk DataFile Version 1.0
2D Simulation C++
ASCII
DATASET UNSTRUCTURED_GRID
FIELD FieldData 1
NODES 1 2 int
8020 15790

POINTS 8020 double
0.0 0.0 0.0
0.0 10.0 0.0
32.5 10.0 0.0
32.5 5.0 0.0
32.5 0.0 0.0
13.0 5.0 0.0
0.0 0.4761904761900502 0.0
0.0 0.9523809523801738 0.0
0.0 1.428571428569921 0.0
0.0 1.904761904759007 0.0
0.0 2.380952380948093 0.0
0.0 2.85714285713718 0.0
0.0 3.333333333326267 0.0
0.0 3.809523809515354 0.0
0.0 4.285714285705605 0.0
0.0 4.761904761896805 0.0
0.0 5.238095238088004 0.0
0.0 5.714285714279203 0.0
0.0 6.190476190470403 0.0
0.0 6.666666666661603 0.0
0.0 7.142857142852802 0.0
0.0 7.619047619044002 0.0
0.0 8.095238095235203 0.0
0.0 8.571428571426402 0.0
0.0 9.047619047617601 0.0
0.0 9.5238095238088 0.0
0.4779411764706936 10.0 0.0
0.9558823529413413 10.0 0.0
1.433823529411887 10.0 0.0
1.911764705882415 10.0 0.0
2.389705882353341 10.0 0.0
2.867647058824476 10.0 0.0
3.345588235295611 10.0 0.0
3.823529411766736 10.0 0.0
4.301470588237381 10.0 0.0
4.779411764707864 10.0 0.0
5.257352941178345 10.0 0.0
5.735294117648827 10.0 0.0
6.213235294119309 10.0 0.0
6.691176470589792 10.0 0.0
7.169117647060273 10.0 0.0
7.647058823530756 10.0 0.0
8.125000000001236 10.0 0.0
8.602941176471717 10.0 0.0
9.080882352942195 10.0 0.0
9.558823529412678 10.0 0.0
10.03676470588316 10.0 0.0
10.51470588235364 10.0 0.0
10.99264705882412 10.0 0.0
11.4705882352946 10.0 0.0
11.94852941176508 10.0 0.0
12.42647058823556 10.0 0.0
12.90441176470604 10.0 0.0
13.38235294117652 10.0 0.0
13.860294117647 10.0 0.0
14.33823529411748 10.0 0.0
14.81617647058796 10.0 0.0
15.29411764705844 10.0 0.0
15.77205882352892 10.0 0.0
16.24999999999941 10.0 0.0
16.72794117646989 10.0 0.0
17.20588235294037 10.0 0.0
17.68382352941086 10.0 0.0
18.16176470588134 10.0 0.0
18.63970588235183 10.0 0.0
19.11764705882231 10.0 0.0
19.59558823529279 10.0 0.0
20.07352941176328 10.0 0.0
20.55147058823376 10.0 0.0
21.02941176470425 10.0 0.0
21.50735294117473 10.0 0.0
21.98529411764521 10.0 0.0
22.4632352941157 10.0 0.0
22.94117647058618 10.0 0.0
23.41911764705666 10.0 0.0
23.89705882352715 10.0 0.0
24.37499999999763 10.0 0.0
24.85294117646811 10.0 0.0
25.3308823529386 10.0 0.0
25.80882352940909 10.0 0.0
26.28676470587956 10.0 0.0
26.76470588235005 10.0 0.0
27.24264705882053 10.0 0.0
27.72058823529102 10.0 0.0
28.1985294117615 10.0 0.0
28.67647058823199 10.0 0.0
29.15441176470247 10.0 0.0
29.63235294117295 10.0 0.0
30.11029411764343 10.0 0.0
30.58823529411392 10.0 0.0
31.0661764705844 10.0 0.0
31.54411764705488 10.0 0.0
32.02205882352551 10.0 0.0
32.5 9.537461488542442 0.0
32.5 9.110247661661234 0.0
32.5 8.71632942187684 0.0
32.5 8.352920100732035 0.0
32.5 8.01743999118337 0.0
32.5 7.707496624142298 0.0
32.5 7.420866028058171 0.0
32.5 7.155474507589394 0.0
32.5 6.909381108865262 0.0
32.5 6.680760044735282 0.0
32.5 6.467883039656645 0.0
32.5 6.269101165071082 0.0
32.5 6.082826501034357 0.0
32.5 5.907513254806567 0.0
32.5 5.741637403567569 0.0
32.5 5.583679879813552 0.0
32.5 5.432108661311174 0.0
32.5 5.285367159979229 0.0
32.5 5.141868793061765 0.0
32.5 4.858131206938235 0.0
32.5 4.714632840020775 0.0
32.5 4.567891338688829 0.0
32.5 4.416320120186453 0.0
32.5 4.258362596432438 0.0
32.5 4.09248674519344 0.0
32.5 3.917173498965652 0.0
32.5 3.730898834928929 0.0
32.5 3.532116960343367 0.0
32.5 3.31923995526473 0.0
32.5 3.090618891134751 0.0
32.5 2.844525492410622 0.0
32.5 2.579133971941842 0.0
32.5 2.292503375857717 0.0
32.5 1.982560008816647 0.0
32.5 1.647079899267982 0.0
32.5 1.283670578123176 0.0
32.5 0.8897523383387922 0.0
32.5 0.4625385114575638 0.0
32.02205882352553 0.0 0.0
31.54411764705491 0.0 0.0
31.06617647058444 0.0 0.0
30.58823529411398 0.0 0.0
30.11029411764351 0.0 0.0
29.63235294117304 0.0 0.0
29.15441176470258 0.0 0.0
28.67647058823211 0.0 0.0
28.19852941176165 0.0 0.0
27.72058823529118 0.0 0.0
27.24264705882072 0.0 0.0
26.76470588235025 0.0 0.0
26.28676470587978 0.0 0.0
25.80882352940932 0.0 0.0
25.33088235293885 0.0 0.0
24.85294117646838 0.0 0.0
24.37499999999793 0.0 0.0
23.89705882352746 0.0 0.0
23.419117647057 0.0 0.0
22.94117647058653 0.0 0.0
22.46323529411607 0.0 0.0
21.9852941176456 0.0 0.0
21.50735294117514 0.0 0.0
21.02941176470468 0.0 0.0
20.55147058823421 0.0 0.0
20.07352941176375 0.0 0.0
19.59558823529328 0.0 0.0
19.11764705882282 0.0 0.0
18.63970588235235 0.0 0.0
18.16176470588189 0.0 0.0
17.68382352941143 0.0 0.0
17.20588235294096 0.0 0.0
16.72794117647049 0.0 0.0
16.25000000000003 0.0 0.0
15.77205882352956 0.0 0.0
15.29411764705909 0.0 0.0
14.81617647058862 0.0 0.0
14.33823529411816 0.0 0.0
13.86029411764769 0.0 0.0
13.38235294117722 0.0 0.0
12.90441176470676 0.0 0.0
12.42647058823629 0.0 0.0
11.94852941176582 0.0 0.0
11.47058823529536 0.0 0.0
10.99264705882489 0.0 0.0
10.51470588235442 0.0 0.0
10.03676470588395 0.0 0.0
9.558823529413484 0.0 0.0
9.080882352943018 0.0 0.0
8.602941176472552 0.0 0.0
8.125000000002085 0.0 0.0
7.647058823531616 0.0 0.0
7.169117647061146 0.0 0.0
6.69117647059068 0.0 0.0
6.213235294120214 0.0 0.0
5.735294117649747 0.0 0.0
5.257352941179281 0.0 0.0
4.779411764708815 0.0 0.0
4.301470588238345 0.0 0.0
3.823529411767876 0.0 0.0
3.345588235297406 0.0 0.0
2.867647058826943 0.0 0.0
2.389705882356477 0.0 0.0
1.911764705886007 0.0 0.0
1.433823529415552 0.0 0.0
0.9558823529450926 0.0 0.0
0.4779411764744665 0.0 0.0
12.99649054800746 5.059136585454831 0.0
12.98601145704154 5.117443022884978 0.0
12.96870983056897 5.174100817712063 0.0
12.94482854549955 5.228314618692611 0.0
12.9147028427276 5.279323382898116 0.0
12.87875562108363 5.326411059091987 0.0
12.83749150076208 5.368916639518141 0.0
12.79148973956047 5.406243439000523 0.0
12.74139610136923 5.437867471095694 0.0
12.68791379106117 5.463344803714272 0.0
12.63179358303867 5.482317790953049 0.0
12.5738232820059 5.494520093660388 0.0
12.51481666391628 5.499780418254248 0.0
12.45560205234314 5.498024921308019 0.0
12.39701069063436 5.489278246150786 0.0
12.33986507307363 5.473663176928802 0.0
12.28496739886616 5.451398914984977 0.0
12.23308831102214 5.422798001753777 0.0
12.18495607821355 5.3882619313626 0.0
12.14124637148172 5.348275514535506 0.0
12.10257277929685 5.303400072913917 0.0
12.06947819411915 5.254265559329403 0.0
12.04242719138054 5.201561714648646 0.0
12.02179950786311 5.146028385322994 0.0
12.00788471102703 5.088445137565878 0.0
12.0008781341181 5.029620313951246 0.0
12.00087813411758 4.970379686057478 0.0
12.0078847110255 4.911554862442619 0.0
12.02179950786071 4.853971614684875 0.0
12.04242719137748 4.79843828535831 0.0
12.06947819411544 4.745734440676881 0.0
12.10257277929276 4.696599927091444 0.0
12.1412463714773 4.651724485469053 0.0
12.18495607820891 4.61173806864117 0.0
12.23308831101738 4.57720199824923 0.0
12.28496739886139 4.548601085017295 0.0
12.33986507306911 4.526336823072724 0.0
12.39701069063074 4.510721753849976 0.0
12.45560205234036 4.501975078692229 0.0
12.51481666391377 4.500219581745677 0.0
12.57382328200409 4.505479906339344 0.0
12.63179358303691 4.517682209046471 0.0
12.68791379105949 4.536655196285043 0.0
12.74139610136785 4.562132528903549 0.0
12.79148973955924 4.593756560998597 0.0
12.83749150076097 4.631083360480839 0.0
12.87875562108282 4.673588940907068 0.0
12.91470284272705 4.720676617101068 0.0
12.9448285454991 4.771685381306513 0.0
12.96870983056872 4.825899182287277 0.0
12.98601145704154 4.882556977115021 0.0
12.99649054800746 4.940863414545169 0.0
7.073511818157784 5.029858106690903 0.0
17.67603798857397 4.649358480801971 0.0
15.51980788912356 6.783494195813232 0.0
15.24030926133367 3.301034215125739 0.0
13.39059288836667 7.665452611149339 0.0
13.33514844902125 2.515057572337582 0.0
27.553726077251 4.955240489983595 0.0
22.60857819543648 5.043377811891269 0.0
30.01625868918043 5.078925927923772 0.0
11.19297549976485 7.384682718964267 0.0
9.913591360931012 5.597812236399048 0.0
10.04661743668775 2.862045395459429 0.0
14.76311500660768 5.145231681905746 0.0
13.93415145135789 6.112125351721792 0.0
14.03987710546389 4.090550796371788 0.0
20.00816164836775 6.837040357041489 0.0
20.22381786441784 4.337963247564542 0.0
25.1329061859065 6.895466842262173 0.0
25.06880113185684 4.339944452449635 0.0
17.72490569462317 6.922862317663928 0.0
13.16553194449592 3.631121279679936 0.0
11.77172088997807 3.185614210999985 0.0
10.57080955409767 4.323632968643673 0.0
13.91374377034483 5.084525880351088 0.0
30.13837285288164 2.736943774153813 0.0
12.97714803757993 6.438898575667718 0.0
11.89449802586309 6.462099473095058 0.0
11.08978250379689 5.730765266542148 0.0
28.65013350140359 7.343592486893503 0.0
21.08179294637462 5.638501419456028 0.0
21.49158692053135 4.420290685252384 0.0
23.28442575507175 2.658030965354746 0.0
19.09405392331934 5.481019786072337 0.0
18.88266169897797 4.20529661880032 0.0
26.10650085401382 5.579605328008349 0.0
26.41580788833501 4.297493346632965 0.0
27.96475993459018 2.810539684373072 0.0
24.12776459459526 5.630050196805615 0.0
22.63763545154895 7.303303006873923 0.0
23.75109720100921 4.357280599395128 0.0
16.32050101350298 5.447792404892583 0.0
30.67863146211478 6.800393022159044 0.0
17.42644006231847 2.375052911461899 0.0
28.84500602434805 4.065613395093855 0.0
28.79695564407173 5.339606801593252 0.0
31.01716197780903 4.004828857038862 0.0
27.36457120726818 6.475514765756182 0.0
16.45539470303436 4.088685492428338 0.0
20.96898099022273 2.194896074976588 0.0
25.69785900402101 2.205498290035236 0.0
31.25176458844598 5.366028913062479 0.0
20.11562171518809 5.323585339276074 0.0
25.09984510603475 5.349907005245907 0.0
19.63064698628524 2.939530820413007 0.0
13.49716835598666 5.580774780603931 0.0
13.54768410031616 4.538493110427036 0.0
29.62357871714568 6.206937429376904 0.0
29.91248767644818 4.000852798510447 0.0
15.69846147335297 4.692355047290491 0.0
22.61507142250197 3.767820463331825 0.0
11.25134206359976 5.006792733438411 0.0
11.48189499429742 4.318487083078582 0.0
12.0623594961527 3.872680352387852 0.0
24.38836200014506 3.25861828363312 0.0
3.630799280908311 3.630116459842547 0.0
[...]
POINT_DATA 8020
SCALARS Psi double
LOOKUP_TABLE default
0.0
10.0
9.664358470962322
4.873379863429558
0.0
5.0
0.4761904761900503
0.952380952380174
1.4285714285699211
1.904761904759007
2.380952380948093
2.85714285713718
3.333333333326267
3.809523809515354
4.285714285705605
4.761904761896805
5.238095238088004
5.714285714279203
6.190476190470404
6.666666666661603
7.142857142852802
7.619047619044003
8.095238095235203
8.571428571426402
9.047619047617601
9.5238095238088
10.0
10.0
10.0
10.0
10.0
10.0
10.0
10.0
10.0
10.0
10.0
10.0
10.0
10.0
10.0
10.0
10.0
10.0
10.0
10.0
10.0
10.0
10.0
10.0
10.0
10.0
10.0
10.0
10.0
10.0
10.0
10.0
10.0
10.0
10.0
10.0
10.0
10.0
10.0
10.0
10.0
10.0
10.0
10.0
10.0
10.0
10.0
10.0
10.0
10.0
10.0
10.0
10.0
10.0
10.0
10.0
10.0
10.0
10.0
10.0
10.0
10.0
10.0
10.0
10.0
10.0
10.0
9.424483192445352
9.02805900745141
8.61542577603594
8.234553532177847
7.884071208996701
7.561021123758394
7.263515679683218
6.989372326262742
6.736601396446778
6.503313364285172
6.287423330894808
6.087425192683509
5.901841831893379
5.72879349690251
5.5670084327152525
5.414727353100186
5.270677151781154
5.133531331809
5.0015540049701395
4.747598100110807
4.6228770375702295
4.497211414635376
4.369097392780356
4.236712560578252
4.097904413898685
3.9499497874709806
3.7897925273845074
3.614687856016732
3.4203254040245277
3.204456919768287
2.964131695806984
2.6974496708888855
2.4036121120665044
2.081403459554813
1.7301657146859934
1.3485859938886666
0.9341846544123895
0.48521430308320296
0.0
0.0
0.0
0.0
0.0
0.0
0.0
0.0
0.0
0.0
0.0
0.0
0.0
0.0
0.0
0.0
0.0
0.0
0.0
0.0
0.0
0.0
0.0
0.0
0.0
0.0
0.0
0.0
0.0
0.0
0.0
0.0
0.0
0.0
0.0
0.0
0.0
0.0
0.0
0.0
0.0
0.0
0.0
0.0
0.0
0.0
0.0
0.0
0.0
0.0
0.0
0.0
0.0
0.0
0.0
0.0
0.0
0.0
0.0
0.0
0.0
0.0
0.0
0.0
0.0
0.0
0.0
5.0
5.0
5.0
5.0
5.0
5.0
5.0
5.0
5.0
5.0
5.0
5.0
5.0
5.0
5.0
5.0
5.0
5.0
5.0
5.0
5.0
5.0
5.0
5.0
5.0
5.0
5.0
5.0
5.0
5.0
5.0
5.0
5.0
5.0
5.0
5.0
5.0
5.0
5.0
5.0
5.0
5.0
5.0
5.0
5.0
5.0
5.0
5.0
5.0
5.0
5.0
5.0
5.032103456985576
4.943407206027848
5.988675399941412
4.291519380202102
7.261376390516163
3.0094260169943152
4.700873998900376
5.524812028540654
4.844633413828067
7.2038525405153155
5.562859897173176
2.9653622452347133
4.96097490705827
5.29007781899934
4.9475676836586935
6.342435443703143
4.890182279771181
6.5499600719264475
4.603748019812413
6.106077924208925
4.326848204752442
3.4949985185708092
4.4070235622029905
4.963389624773013
2.8283013137116386
5.861787107624517
6.138869287441294
5.604556944871662
7.072901200596632
5.508028032509712
5.163965536859375
3.1604021445880197
4.85422222390528
4.755990025433696
5.326049273533626
4.350902394019965
2.8887806284842488
5.704401067627487
7.095540140389251
4.8953810131448785
4.996728502396541
6.590376953551106
3.0946612528165995
3.981268016220168
5.008809502911742
3.985076362100193
6.05982520631607
5.09709056540646
2.8047381934550035
2.3808754056653414
5.18149250392547
5.061201371130956
5.366971096965998
3.773045903412082
4.9736323996849485
5.024285532085881
5.918871012589066
3.940184964973714
5.15715281515017
4.561579026991395
5.010255375534162
4.516727735552324
4.2760536205962545
3.661111365670279
3.6321334279044537
4.958352205880964
6.027262667732025
5.892834447188837
6.531575817073496
6.541653703593916
4.743836078878183
5.051570843282291
5.5973169190297805
3.8249351812396846
7.662373172707952
5.569345461014231
4.869686769622849
4.859468469928493
4.4415646933305135
4.769401108882056
5.120392444013025
5.47469356603344
5.632099234134609
5.140391526874265
6.852800274829534
4.97624652909321
5.115316796231215
6.461615858383298
4.9430137459862005
5.102846128267617
4.32096820967768
5.519357169949343
5.337617152243228
5.910463794354412
6.290216103223584
7.997647118290073
5.594056041216952
3.5720011490923254
5.15900399599897
5.489455360302069
7.154174232641832
4.45980332291962
4.547108813942172
4.224599730493298
4.4854003511915455
4.589019967591349
4.556044292117894
7.827531436463181
2.945909327994743
5.204611899570913
4.761642903215845
5.033010775330781
3.8059251565387284
4.396100081117491
4.297754936975082
6.088421822819258
4.9824630168402395
4.577042999382017
5.19018883234047
2.474365058604754
4.970996104017331
5.2989826972006115
5.096515841562397
5.710905105695111
5.336483482028841
2.180218926284423
2.9784030305755613
5.794935000325421
4.747017948500736
8.143671953391708
4.475439396772561
5.793578911807541
2.1624087095364524
8.18166484086154
7.620202328792632
8.180577394609058
3.8108035077562277
3.284725313384958
1.943422590703652
5.212281644553029
5.219097144724119
5.029117241362593
7.703089730247774
3.94484487643553
5.666540598373078
7.040184966189811
5.411526497373995
4.926104558313537
4.166224824013649
2.5822684597574557
5.15100692105365
5.042662566065239
4.932593864960366
6.922321425001396
3.914636275640276
5.644389390295789
4.704406221859115
4.126619298163236
5.0080202453084075
6.497083113568878
1.798710131393043
4.802589816597988
4.857299052213449
3.026804316547605
5.085968625886767
7.518079319477387
5.694570846687044
5.7293766119972105
4.447569210151508
7.7870270354565765
3.394810398808918
4.8695723948368
5.370813082639983
7.123413047106503
7.788498119612556
4.879318737127988
6.108067750084303
1.5208217932882655
1.418938311118076
4.378817951079522
4.346919256690041
2.0801218183272456
3.6479549458789187
5.082057417113462
4.2560417611825985
5.247335661409199
4.902873005235999
4.894066089333349
5.341804864533423
5.068806771385594
8.441060287809435
4.65489330742908
4.972833453403056
5.246980980931299
5.481938576954057
5.018182489933087
4.011952237656327
5.414893653648694
2.303244702477196
2.052347942039557
4.638540227025416
3.4881922016204054
5.195363581255403
6.062315236967094
6.992185273596084
5.913082772957096
5.549600096473105
6.075054659819145
6.5153401159801305
7.641364238645353
5.7109072992785705
5.684530896714281
2.2704244776936973
5.015764292443298
5.2758517157602425
4.6004782827714745
5.763441899588136
5.493087006318541
4.984608323967667
3.6590334664203126
4.732701103626269
5.176278997545641
8.434083196017562
4.065311281227557
6.256797459583078
4.977311552015941
1.5110635607727547
8.408596825473774
5.055878060184839
5.083950536161908
1.834350941275172
5.084509294590541
4.902622993450317
4.963274107400857
4.711572605626271
6.083485919108792
5.117895855273579
5.237915093989543
4.314906371754938
8.633194688047231
4.472632647417841
7.573111033813842
5.9847508586830145
3.993203881206061
4.725111385412458
6.822930832416597
5.1931554539917535
4.943797693987247
4.947930914908227
4.955436097775623
3.2933439826271775
6.695397415067137
4.69864389824127
4.801940466180301
4.812001850167677
5.0246266434312234
5.82540515568117
3.926985025074845
4.763972034566261
8.527714280533399
5.419221044897035
5.186330364028432
4.714432732566804
5.289142172259869
4.951001880251376
5.547687726452338
3.8060119824129677
2.5914249952087363
1.5827097418334621
5.794422483946531
3.492585062317851
3.981568536374464
4.626517083142934
6.656921933404022
4.880628514191701
1.5743887047671632
4.595232264807434
8.43150903151046
6.122212413610542
6.471977744593023
3.6767126666665098
8.337496996900724
5.002321001330371
4.656409158569593
5.081017889783444
1.8079806056194283
6.462596601777836
4.3126601756617085
5.00120706671297
4.983667636878875
4.974378739916364
5.964792862807397
5.012349401886005
5.1260501324379835
4.819437823703604
5.4898226361840985
5.327945581067832
4.990301714277428
5.2103477813123416
4.758368948838162
4.556018597982713
5.231404667775233
4.69351913174926
4.267230737249868
5.480834591378418
4.461614430343089
4.8115827183235895
5.019000669758708
3.6550955643432257
4.339793575389906
6.1412929058775205
3.200399393525015
5.031018623198749
5.042710980513146
4.610287264754165
4.7406687369480025
4.8107492613766
4.941021006681969
6.455741673651926
4.737456245156597
4.097774536892327
5.68254589323305
5.192079843508122
7.552141048964494
4.80535636903312
4.897327307027912
5.594828591798192
7.140568168688436
4.778392484786067
4.998472102635284
7.170244837697442
8.50293797086631
6.235322126961351
3.4871939728896186
6.212458484628828
6.211520279080191
3.546254176056726
3.4736932290515954
3.928967278165816
8.506422946447382
1.6207197100807733
4.188782493058725
5.045336936519766
7.2483821799842065
4.90824531611265
5.061965900829557
5.51946822346221
6.172103736084224
4.680972580661193
4.963002286113005
4.743421196240006
5.20000349235977
8.515926749630559
5.056948833351945
4.773736419156233
3.3835258918321607
4.8270827963498055
5.957741929372625
3.9129952387406997
4.286090106132125
5.0237058112619435
5.341132196657212
5.417650420518562
5.306590965846754
7.450470254917666
3.4420114812595295
2.8607744051744484
4.8554438335946735
5.1377360860531525
3.2489545734791707
4.844044629987191
5.738752332166481
6.379341476958027
4.869699408802211
1.5740233594163375
2.7083713084068335
5.565678880119212
5.477963651477894
5.3148633648785975
4.740442803626417
4.145557963133279
5.324575938773365
6.536418677641311
6.195964984071541
6.277333888373187
6.8534180951952655
3.700529358633748
1.262562813861157
5.1401492023693
1.410542762333302
8.503920204684283
6.07243564378289
5.511612951234079
3.6171260133936767
5.564171103459107
5.276457576847868
4.760582636313343
7.2081080354214455
4.918646470307588
4.261800245197776
1.8539207483615445
5.489923315159811
5.14204535443308
3.085939550460788
5.078811915749946
4.824393819799521
4.9229507076922
3.634029333708406
4.615427018847889
5.008857965642914
3.8484767470130263
4.705306959182546
1.5956399931037364
3.4018533981935444
4.860989428123862
2.6802127113556526
7.7850279373792075
5.961699810487682
4.99069766050007
4.24780730387692
6.041711026033537
3.448738784041869
5.082283044305664
6.564847936690397
6.590251566021179
5.233107415585029
5.05162935266778
5.134100928558711
4.186038813026049
5.255240612797729
2.1541081061190903
4.451649912032989
4.925942542954446
5.188105116691912
5.020399948215457
5.845483463814499
6.629768347948047
5.778467727559961
5.047555201141919
4.731505696162748
4.533199135549971
5.673429259066796
5.063765146584854
8.783548074958237
4.9154484823006195
5.062519603810123
4.483693266811752
5.485578783708843
5.146138309757933
1.3893792883106701
3.8431398940826007
5.818285516627796
5.1630483604432875
2.022116517132849
2.523793300805973
5.240210797667241
4.1403717724653495
5.624477936325956
4.648841588405439
5.192583514489003
8.81423452349463
8.602198775808594
6.925196795691978
8.14437254179231
4.8553764507219865
5.321821772983631
4.631884132232325
5.5758063795133745
5.69349713409168
5.614199082572322
6.469321456558481
8.818294692097707
2.3625814285295568
4.351148074570488
4.816247463424684
4.767615766553729
5.04132311777401
6.463291045140224
8.661164336116492
5.798487905986417
4.185491260744988
5.761022759515564
3.8382525906431715
5.094149452543933
4.951390151427364
4.109515440404988
7.329261803964842
6.683277867820315
5.852440169424274
5.28106420437161
5.057829680692762
4.743786343807739
2.856717373472796
3.3760011294055743
7.494886895350185
1.2883235118245486
5.684543399281694
5.391160545655207
4.389057805593776
1.3856873311250701
6.453161401370345
4.36165619009167
4.974986276140983
5.635274097472022
5.51352432338827
8.70956455212732
4.999664911780131
6.414627704341014
5.688402613968108
7.662295329717742
7.76073705184676
3.714620851623653
5.2740353457616855
4.599561533117989
4.340652013035341
4.432812230854514
2.65426657371448
2.0819444324152987
5.083293743170484
4.994672970812483
5.489602510949039
5.042716632611409
5.061840866945768
1.3288260342731528
4.172558810629917
4.458338986891532
5.305497040974173
1.0354931752761332
6.273412703099472
5.789296859480096
5.021254273459135
5.029954169782782
5.00011017562405
4.63877473430866
5.859913640528072
4.972716125012333
4.939438881073703
4.100236880812768
8.157386275261322
5.984260055717592
5.000744376368455
4.95606561388954
3.95998018357373
2.2725351418318605
4.893527891202095
4.319272675815494
4.972171124029426
1.162623655389657
2.663045508391498
8.78931627819
3.7257666637673954
5.679328397062729
5.534542491136762
5.058466714544474
4.073752244525628
6.634118823300313
8.75143732238997
6.987528775074246
2.952016217126655
1.2368204286531457
5.330051638355749
6.152696144671731
4.466457924086086
3.802988885900603
8.792306850240902
3.914508647064837
7.674284209147142
4.745293840584464
5.099445773146489
7.208630909591361
8.544391691039484
5.183116919409344
5.081809017892734
5.328076505970482
2.9651808332103724
5.293522381802955
6.508027795989798
4.4137689690877195
2.776803576687485
4.576289406418023
5.038639490859232
5.00896663674169
4.940934344273277
4.1049204566837325
1.147449419287915
4.722841602960896
4.701679689060241
5.355413270540857
6.979621421337949
5.7204314100279
3.4685175322289017
4.6550396928661515
5.850934615900041
4.993690220082156
6.593095141266118
4.7017557491528255
4.5968088564270735
4.569536300221098
2.5258753235016367
4.823257912528703
2.0226158068812854
5.005633235684588
5.317674988616934
6.730022391108731
4.12030345380722
4.478710239765188
5.110835803339881
4.7483479537072375
4.834140507934456
5.132255251758176
3.331531036184734
4.5171243108488675
4.252267211539157
3.710227423876143
5.489270498551491
5.259614346473771
4.738097016804521
5.692210128775806
2.9005908635229853
5.480043211565361
3.7019802663596706
5.597901878465334
1.2417208757707796
4.387228089020303
5.7101822613114335
5.937256372405791
4.991784183153171
6.056925036898969
4.935412559136926
4.039388386449988
4.637355636865746
7.711185356832096
5.341216279937616
3.6699692409150853
4.8131970402935265
3.96573420506122
5.007885017968811
5.221466868761989
4.98531808154662
5.035143351879859
9.036762915811996
1.2391728315701873
5.0777197945174235
4.992954186719566
5.139444371342659
5.096302277383678
7.289816880853321
7.912929391288049
3.6559043992422144
3.784583429294101
4.888527390709153
4.8833976383705995
4.994826425099026
5.135275076706938
2.987977361635238
3.9480084970862706
6.155507939687063
5.0996182352630965
6.406746312205918
4.367051043212315
7.050927662339496
4.831609441384108
4.8214899655325905
7.099499940359675
2.6153543994803066
2.9298812805622196
5.023612812385878
4.08903829068153
5.567036135221419
5.994172630224629
3.1463707881958456
4.8201402484939395
5.326904200170624
5.4926503184839754
4.991701659688924
5.592024514541906
7.272477490439669
8.871806730123893
4.835262192486151
5.028466016394938
5.791686414445361
4.784802205076955
2.6576413817555853
8.826841008067262
8.883566664373868
5.323174187476422
2.5874947649015736
4.864373044583324
5.011605959473026
4.664698670171514
4.877655154383397
4.372693269956372
6.013162271901203
1.184679304536209
3.6308121240379276
1.2089925829449033
6.725417655543664
5.554722520453131
2.6942528907183116
4.881328506248978
5.8648637108673105
6.906504319790325
0.98867452877346
5.91480296187017
3.4270011092874597
6.850791919231813
5.496457637856115
3.988397711153006
4.242624788359536
6.348921445917309
1.1088720041404285
6.28931147757
5.582311651190339
5.3492320498770605
5.177803733461099
6.943517946701143
1.0070248729994224
5.000581380581276
4.062550075653277
5.160502394893658
5.353493052714453
4.822069738552396
5.202434721380287
4.934078748458077
5.240984629775356
4.904113788001618
5.42930342559298
5.202000802189667
4.9335993508810905
4.720376451628413
5.065882057080442
5.269957660995047
5.053326462908323
5.179676971556424
5.91205539162434
4.8286095476549775
4.941672580347278
5.158446028101287
5.71353901384494
5.436823111908465
4.731751174052898
4.845981015009767
5.035084777826829
5.2765237590550145
4.65920708053923
5.258702274352927
4.93174154620657
5.070886142878894
7.6695301377161575
2.132662630337096
9.19479716385785
5.121076629949679
5.523796987709398
4.506738477011096
3.1206136922377596
6.88348279332594
4.951625352871563
4.958075202568927
1.03228525601455
5.322021403272194
5.716404554707251
4.755352089939804
4.858864280122262
4.705522540801363
5.592543283449346
7.036581688936146
5.134050002572717
4.86677010705137
7.230774273337848
3.371357221581292
4.566061298391508
5.32624413679764
5.788879593374432
6.777744472322594
7.472771960153353
4.795456698636945
2.7064273984002765
4.051061149506765
2.4506778280888133
4.335363328074806
3.915192094060183
2.478105162417697
5.958776266435316
7.194754929756917
5.111881324118952
5.617569888534545
4.470021922586234
2.546469788220856
3.712136549740427
4.303615765132287
5.981490453540224
4.484366128806117
5.604835277221093
6.36525920388306
4.602530831409879
4.7992672464246295
9.043609697934949
4.582281978864837
4.995838420435184
8.380380812674503
5.046008328292672
5.026740102611709
5.808305104993092
4.327786972170673
5.539990549036822
5.2483502098446575
4.714715470015069
3.8861663823293777
4.14307261530101
3.7766781362835564
6.347714087533567
2.912426541984416
5.667289064030949
1.14061289017813
2.249202392460529
5.275995935509191
7.9439566094060385
5.677877622610587
5.144067273636417
4.764573369818329
4.701839647285504
4.841535388359585
6.460319954064632
5.618917041007344
3.9327072989130594
4.948415468644905
5.013099459889798
7.970906123753052
1.9575204132052522
4.339849934336363
5.048709398538523
6.123817084436534
4.934748640776263
7.508220032869557
5.757360008443946
5.489825655289921
5.018053150689363
4.813095493217247
4.850838867332755
6.507697984963141
4.765124405104606
4.819736037581196
5.025125818492161
5.126498976452289
5.2405723702380005
4.878522233071426
4.799931290705675
7.035184353433042
5.21087049088658
9.200803488899655
6.0479649187688995
5.1782243301781765
5.046402464317475
5.013679515091841
7.39663872806491
5.050906017200664
4.749246879628896
0.9921600592531858
5.130351202199855
4.48553985790658
7.075223576035836
4.333041885463002
5.256549421403029
5.800912051042257
4.135654794660812
7.624547608831255
6.616628891397513
5.289157383768084
6.542558181181313
4.804346154556189
3.059223246872886
5.062533330653406
5.859470824153036
5.459577764656443
4.722929140067097
6.182341652058514
5.514629082480027
7.623731268930517
5.525741857422896
5.247414083949678
5.360418909785139
5.410047346210396
4.993312985498162
5.206927862221577
5.171633978073281
4.973014499612931
4.065278691186399
5.997246239190461
7.507327226468267
4.1109360853438774
5.962960448350665
3.207395567584792
4.1824943051156955
3.690910080459247
4.559996952997491
4.731648784800039
6.071125929316181
5.808058249713699
3.6223083328757317
3.7244359528429607
4.157131898411369
4.336903358787388
4.9673611220644895
5.055301298067417
7.758076756730599
6.013068739154276
2.9653002189729407
0.9695838436513652
9.010940164148316
8.032191703610978
4.840884880267724
9.090172851275865
4.195504351802449
4.895622177992252
4.53804001620838
2.345097124246263
5.810816552713751
5.965895162267885
5.087804999256023
2.8662865973662557
7.93566819051359
5.357367067544101
5.652873381821917
3.1516012239032545
0.9783808649517564
6.0591334007486655
6.04727451983922
4.933907112792339
2.9860758394454807
6.755843572465699
5.0150403233541025
7.421825352056223
0.8367888617488894
4.30263906914291
2.511585547323571
4.716271091904094
5.002597299094283
2.7768490706898783
6.028185992885991
4.835790632888983
5.036250877341368
4.8833634490739986
4.789625279841321
6.697750579105255
6.176262518045465
7.148191649936237
4.718094500344229
6.178725711064049
6.627275223382867
7.621746285008173
5.01584700660795
4.899385161174465
4.346038656713496
4.333642664823071
3.1382677681985065
2.38314065460388
5.058256537346372
5.233434682410685
5.410590415005302
4.797679662818349
6.033282065732623
5.996482829097457
3.4616810165302865
3.308009125599969
3.9950149946480353
5.036045352761006
4.948498591898583
4.1499430234187615
5.419485832763715
5.922411794079067
5.098511724098355
9.119814474025137
6.317228303999695
3.7496265113651854
5.6274393035731585
6.214731999693817
3.3498135547848973
5.094372383472571
6.750624928386853
6.707546302009891
4.776137175008493
6.761079412389865
9.104840284138767
6.0859047968871876
5.500420230222079
4.775869253126263
5.079086832716341
2.2824411704514316
4.125079768337229
4.8563576123347225
5.482468903535371
3.8130987244169283
5.601415490767354
4.941393382370974
2.4345074240063047
7.605607541810517