# vtk DataFile Version 1.0
2D Simulation C++
ASCII
DATASET UNSTRUCTURED_GRID
FIELD FieldData 1
NODES 1 2 int
14521 28612

POINTS 14521 double
0.0 0.0 0.0
0.0 10.0 0.0
32.5 10.0 0.0
32.5 5.0 0.0
32.5 0.0 0.0
13.0 5.0 0.0
0.0 0.2941176470586055 0.0
0.0 0.5882352941171234 0.0
0.0 0.8823529411757415 0.0
0.0 1.176470588234357 0.0
0.0 1.470588235292488 0.0
0.0 1.764705882350453 0.0
0.0 2.058823529408418 0.0
0.0 2.352941176466384 0.0
0.0 2.647058823524349 0.0
0.0 2.941176470582313 0.0
0.0 3.235294117640277 0.0
0.0 3.529411764698242 0.0
0.0 3.823529411756206 0.0
0.0 4.117647058814589 0.0
0.0 4.41176470587386 0.0
0.0 4.70588235293313 0.0
0.0 4.999999999992401 0.0
0.0 5.294117647051672 0.0
0.0 5.588235294110941 0.0
0.0 5.882352941170211 0.0
0.0 6.176470588229482 0.0
0.0 6.470588235288753 0.0
0.0 6.764705882348023 0.0
0.0 7.058823529407294 0.0
0.0 7.352941176466564 0.0
0.0 7.647058823525834 0.0
0.0 7.941176470585106 0.0
0.0 8.235294117644376 0.0
0.0 8.529411764703648 0.0
0.0 8.823529411762916 0.0
0.0 9.117647058822186 0.0
0.0 9.411764705881458 0.0
0.0 9.70588235294073 0.0
0.2981651376147483 10.0 0.0
0.5963302752294813 10.0 0.0
0.8944954128441965 10.0 0.0
1.192660550458881 10.0 0.0
1.490825688073508 10.0 0.0
1.788990825688125 10.0 0.0
2.087155963302878 10.0 0.0
2.385321100917831 10.0 0.0
2.683486238532852 10.0 0.0
2.981651376147873 10.0 0.0
3.279816513762893 10.0 0.0
3.577981651377914 10.0 0.0
3.876146788992889 10.0 0.0
4.174311926607628 10.0 0.0
4.472477064222242 10.0 0.0
4.770642201836855 10.0 0.0
5.068807339451469 10.0 0.0
5.366972477066083 10.0 0.0
5.665137614680697 10.0 0.0
5.963302752295311 10.0 0.0
6.261467889909925 10.0 0.0
6.559633027524539 10.0 0.0
6.857798165139153 10.0 0.0
7.155963302753767 10.0 0.0
7.454128440368381 10.0 0.0
7.752293577982995 10.0 0.0
8.050458715597609 10.0 0.0
8.348623853212223 10.0 0.0
8.646788990826836 10.0 0.0
8.94495412844145 10.0 0.0
9.243119266056064 10.0 0.0
9.541284403670678 10.0 0.0
9.83944954128529 10.0 0.0
10.1376146788999 10.0 0.0
10.43577981651452 10.0 0.0
10.73394495412913 10.0 0.0
11.03211009174375 10.0 0.0
11.33027522935836 10.0 0.0
11.62844036697297 10.0 0.0
11.92660550458759 10.0 0.0
12.2247706422022 10.0 0.0
12.52293577981682 10.0 0.0
12.82110091743143 10.0 0.0
13.11926605504605 10.0 0.0
13.41743119266066 10.0 0.0
13.71559633027527 10.0 0.0
14.01376146788989 10.0 0.0
14.3119266055045 10.0 0.0
14.61009174311912 10.0 0.0
14.90825688073373 10.0 0.0
15.20642201834834 10.0 0.0
15.50458715596296 10.0 0.0
15.80275229357757 10.0 0.0
16.10091743119218 10.0 0.0
16.3990825688068 10.0 0.0
16.69724770642141 10.0 0.0
16.99541284403603 10.0 0.0
17.29357798165064 10.0 0.0
17.59174311926525 10.0 0.0
17.88990825687987 10.0 0.0
18.18807339449448 10.0 0.0
18.48623853210909 10.0 0.0
18.78440366972371 10.0 0.0
19.08256880733832 10.0 0.0
19.38073394495293 10.0 0.0
19.67889908256754 10.0 0.0
19.97706422018216 10.0 0.0
20.27522935779677 10.0 0.0
20.57339449541138 10.0 0.0
20.87155963302599 10.0 0.0
21.1697247706406 10.0 0.0
21.46788990825521 10.0 0.0
21.76605504586983 10.0 0.0
22.06422018348444 10.0 0.0
22.36238532109905 10.0 0.0
22.66055045871366 10.0 0.0
22.95871559632827 10.0 0.0
23.25688073394288 10.0 0.0
23.55504587155749 10.0 0.0
23.85321100917211 10.0 0.0
24.15137614678672 10.0 0.0
24.44954128440133 10.0 0.0
24.74770642201594 10.0 0.0
25.04587155963055 10.0 0.0
25.34403669724516 10.0 0.0
25.64220183485978 10.0 0.0
25.94036697247438 10.0 0.0
26.238532110089 10.0 0.0
26.5366972477036 10.0 0.0
26.83486238531822 10.0 0.0
27.13302752293283 10.0 0.0
27.43119266054744 10.0 0.0
27.72935779816205 10.0 0.0
28.02752293577667 10.0 0.0
28.32568807339127 10.0 0.0
28.62385321100589 10.0 0.0
28.9220183486205 10.0 0.0
29.22018348623511 10.0 0.0
29.51834862384972 10.0 0.0
29.81651376146434 10.0 0.0
30.11467889907894 10.0 0.0
30.41284403669356 10.0 0.0
30.71100917430817 10.0 0.0
31.00917431192278 10.0 0.0
31.30733944953739 10.0 0.0
31.605504587152 10.0 0.0
31.90366972476661 10.0 0.0
32.20183486238237 10.0 0.0
32.5 9.704670932249275 0.0
32.5 9.40934186449855 0.0
32.5 9.119724688466377 0.0
32.5 8.843554074514566 0.0
32.5 8.580208926166412 0.0
32.5 8.329033426013027 0.0
32.5 8.089398249298329 0.0
32.5 7.860698623560229 0.0
32.5 7.642352095094644 0.0
32.5 7.433796399747433 0.0
32.5 7.234487076551145 0.0
32.5 7.043894845848946 0.0
32.5 6.861502922847221 0.0
32.5 6.686804005096128 0.0
32.5 6.519296609419547 0.0
32.5 6.358481287304047 0.0
32.5 6.203856309284161 0.0
32.5 6.054912477284352 0.0
32.5 5.911127605902981 0.0
32.5 5.771960797335053 0.0
32.5 5.636846224632778 0.0
32.5 5.505187804642507 0.0
32.5 5.376355306795872 0.0
32.5 5.249683025653217 0.0
32.5 5.124472555996909 0.0
32.5 4.87552744400309 0.0
32.5 4.750316974346781 0.0
32.5 4.623644693204131 0.0
32.5 4.494812195357495 0.0
32.5 4.363153775367226 0.0
32.5 4.228039202664948 0.0
32.5 4.088872394097016 0.0
32.5 3.945087522715645 0.0
32.5 3.796143690715835 0.0
32.5 3.641518712695949 0.0
32.5 3.480703390580449 0.0
32.5 3.313195994903866 0.0
32.5 3.138497077152773 0.0
32.5 2.956105154151047 0.0
32.5 2.765512923448848 0.0
32.5 2.566203600252559 0.0
32.5 2.357647904905347 0.0
32.5 2.139301376439767 0.0
32.5 1.910601750701668 0.0
32.5 1.670966573986973 0.0
32.5 1.419791073833593 0.0
32.5 1.156445925485432 0.0
32.5 0.8802753115336266 0.0
32.5 0.5906581355014486 0.0
32.5 0.2953290677507248 0.0
32.20183486238238 0.0 0.0
31.90366972476663 0.0 0.0
31.60550458715203 0.0 0.0
31.30733944953742 0.0 0.0
31.00917431192282 0.0 0.0
30.71100917430822 0.0 0.0
30.41284403669362 0.0 0.0
30.11467889907901 0.0 0.0
29.81651376146441 0.0 0.0
29.51834862384981 0.0 0.0
29.2201834862352 0.0 0.0
28.9220183486206 0.0 0.0
28.623853211006 0.0 0.0
28.3256880733914 0.0 0.0
28.02752293577679 0.0 0.0
27.72935779816219 0.0 0.0
27.43119266054759 0.0 0.0
27.13302752293298 0.0 0.0
26.83486238531838 0.0 0.0
26.53669724770378 0.0 0.0
26.23853211008917 0.0 0.0
25.94036697247457 0.0 0.0
25.64220183485996 0.0 0.0
25.34403669724536 0.0 0.0
25.04587155963076 0.0 0.0
24.74770642201615 0.0 0.0
24.44954128440155 0.0 0.0
24.15137614678694 0.0 0.0
23.85321100917234 0.0 0.0
23.55504587155774 0.0 0.0
23.25688073394313 0.0 0.0
22.95871559632853 0.0 0.0
22.66055045871393 0.0 0.0
22.36238532109932 0.0 0.0
22.06422018348472 0.0 0.0
21.76605504587012 0.0 0.0
21.46788990825551 0.0 0.0
21.16972477064091 0.0 0.0
20.87155963302631 0.0 0.0
20.5733944954117 0.0 0.0
20.2752293577971 0.0 0.0
19.9770642201825 0.0 0.0
19.6788990825679 0.0 0.0
19.38073394495329 0.0 0.0
19.08256880733868 0.0 0.0
18.78440366972408 0.0 0.0
18.48623853210948 0.0 0.0
18.18807339449488 0.0 0.0
17.88990825688027 0.0 0.0
17.59174311926567 0.0 0.0
17.29357798165107 0.0 0.0
16.99541284403646 0.0 0.0
16.69724770642186 0.0 0.0
16.39908256880725 0.0 0.0
16.10091743119265 0.0 0.0
15.80275229357805 0.0 0.0
15.50458715596345 0.0 0.0
15.20642201834884 0.0 0.0
14.90825688073424 0.0 0.0
14.61009174311963 0.0 0.0
14.31192660550503 0.0 0.0
14.01376146789042 0.0 0.0
13.71559633027582 0.0 0.0
13.41743119266122 0.0 0.0
13.11926605504662 0.0 0.0
12.82110091743201 0.0 0.0
12.52293577981741 0.0 0.0
12.22477064220281 0.0 0.0
11.92660550458821 0.0 0.0
11.62844036697361 0.0 0.0
11.33027522935901 0.0 0.0
11.03211009174441 0.0 0.0
10.7339449541298 0.0 0.0
10.4357798165152 0.0 0.0
10.1376146789006 0.0 0.0
9.839449541286001 0.0 0.0
9.541284403671398 0.0 0.0
9.243119266056798 0.0 0.0
8.944954128442202 0.0 0.0
8.646788990827599 0.0 0.0
8.348623853212999 0.0 0.0
8.050458715598396 0.0 0.0
7.752293577983796 0.0 0.0
7.454128440369193 0.0 0.0
7.155963302754593 0.0 0.0
6.85779816513999 0.0 0.0
6.559633027525393 0.0 0.0
6.26146788991079 0.0 0.0
5.963302752296187 0.0 0.0
5.665137614681587 0.0 0.0
5.366972477066984 0.0 0.0
5.068807339452384 0.0 0.0
4.770642201837781 0.0 0.0
4.472477064223181 0.0 0.0
4.174311926608581 0.0 0.0
3.876146788993982 0.0 0.0
3.577981651379378 0.0 0.0
3.279816513764779 0.0 0.0
2.981651376150179 0.0 0.0
2.683486238535576 0.0 0.0
2.385321100920976 0.0 0.0
2.087155963306376 0.0 0.0
1.788990825691776 0.0 0.0
1.490825688077173 0.0 0.0
1.19266055046257 0.0 0.0
0.8944954128479665 0.0 0.0
0.5963302752333668 0.0 0.0
0.298165137617616 0.0 0.0
12.99937846060976 5.024922942824306 0.0
12.99751538768329 5.049783923292 0.0
12.99441541311343 5.074521133082333 0.0
12.9900862439254 5.099073071594094 0.0
12.98453864311594 5.123378698839655 0.0
12.97778640289475 5.1473775872 0.0
12.96984631039484 5.171010071657642 0.0
12.96073810593722 5.194217398132568 0.0
12.95048443395334 5.216941869554349 0.0
12.93911078668734 5.239126989306574 0.0
12.92664544081843 5.260717601685897 0.0
12.91311938716051 5.281660029028131 0.0
12.89856625361406 5.301902205159314 0.0
12.88302222156224 5.321393804839989 0.0
12.86652593591789 5.340086368882249 0.0
12.84911840904608 5.357933424626895 0.0
12.83084291880141 5.374890601481234 0.0
12.81174490093244 5.390915741231562 0.0
12.79187183612062 5.405969002855607 0.0
12.77127313193625 5.42001296157321 0.0
12.75000000000368 5.433012701890096 0.0
12.72810532868064 5.444935904403652 0.0
12.70564355156948 5.455752926153954 0.0
12.68267051218724 5.465436874320517 0.0
12.65924332512987 5.473963673082213 0.0
12.63542023407562 5.481312123473847 0.0
12.6112604669825 5.487463956089922 0.0
12.58682408883806 5.492403876505294 0.0
12.5621718523285 5.49611960329949 0.0
12.53736504679821 5.498601898590215 0.0
12.512465345874 5.499844591000285 0.0
12.48753465413557 5.499844591000523 0.0
12.46263495321133 5.49860189859093 0.0
12.43782814768099 5.49611960330068 0.0
12.41317591117137 5.492403876506956 0.0
12.38873953302684 5.487463956092052 0.0
12.36457976593359 5.48131212347644 0.0
12.34075667487921 5.473963673085262 0.0
12.31732948782167 5.465436874324014 0.0
12.29435644843925 5.455752926157889 0.0
12.27189467132783 5.444935904407994 0.0
12.25000000000449 5.433012701894812 0.0
12.22872686807166 5.420012961578315 0.0
12.20812816388707 5.405969002861141 0.0
12.18825509907505 5.390915741237538 0.0
12.1691570812058 5.374890601487596 0.0
12.15088159096094 5.357933424633736 0.0
[...]
POINT_DATA 14521
SCALARS Psi double
LOOKUP_TABLE default
0.0
10.0
9.796877604340088
4.996929250829424
0.0
5.0
0.2941176470586055
0.5882352941171234
0.8823529411757415
1.176470588234357
1.470588235292488
1.764705882350453
2.058823529408418
2.352941176466384
2.647058823524349
2.9411764705823136
3.235294117640277
3.5294117646982426
3.823529411756206
4.117647058814589
4.41176470587386
4.70588235293313
4.999999999992401
5.294117647051672
5.588235294110941
5.882352941170211
6.176470588229482
6.470588235288753
6.764705882348023
7.058823529407294
7.352941176466565
7.647058823525834
7.9411764705851065
8.235294117644376
8.529411764703648
8.823529411762916
9.117647058822186
9.411764705881458
9.70588235294073
10.0
10.0
10.0
10.0
10.0
10.0
10.0
10.0
10.0
10.0
10.0
10.0
10.0
10.0
10.0
10.0
10.0
10.0
10.0
10.0
10.0
10.0
10.0
10.0
10.0
10.0
10.0
10.0
10.0
10.0
10.0
10.0
10.0
10.0
10.0
10.0
10.0
10.0
10.0
10.0
10.0
10.0
10.0
10.0
10.0
10.0
10.0
10.0
10.0
10.0
10.0
10.0
10.0
10.0
10.0
10.0
10.0
10.0
10.0
10.0
10.0
10.0
10.0
10.0
10.0
10.0
10.0
10.0
10.0
10.0
10.0
10.0
10.0
10.0
10.0
10.0
10.0
10.0
10.0
10.0
10.0
10.0
10.0
10.0
10.0
10.0
10.0
10.0
10.0
10.0
10.0
10.0
10.0
10.0
10.0
10.0
10.0
10.0
10.0
10.0
10.0
10.0
10.0
10.0
10.0
10.0
10.0
10.0
9.61481395533592
9.376203463859845
9.101388806086058
8.828495457111401
8.567832749649453
8.318492297114547
8.080196908341723
7.852501391072664
7.634933289927148
7.427010559296589
7.228221818403113
7.038063163239895
6.856044673887786
6.681667121694052
6.5144387131791825
6.353870001396031
6.199463807227435
6.0507186426995885
5.907113371361259
5.768110981332534
5.633147578132801
5.50162966441229
5.372928790700568
5.246380768305446
5.121288345976099
4.872566067661965
4.747461662389304
4.620893400103717
4.4921636342162845
4.360607148974218
4.2255939833534075
4.086528846962825
3.942845921292002
3.79400476744851
3.6394836929351038
3.4787737033443187
3.31137345775975
3.136783471319502
2.954503102752728
2.764024714966854
2.564832053501279
2.356395540529505
2.138171717865989
1.9095986605399347
1.6700938937391032
1.4190530872409743
1.1558477991506741
0.8798217794918878
0.5903568581073237
0.29518121995715474
0.0
0.0
0.0
0.0
0.0
0.0
0.0
0.0
0.0
0.0
0.0
0.0
0.0
0.0
0.0
0.0
0.0
0.0
0.0
0.0
0.0
0.0
0.0
0.0
0.0
0.0
0.0
0.0
0.0
0.0
0.0
0.0
0.0
0.0
0.0
0.0
0.0
0.0
0.0
0.0
0.0
0.0
0.0
0.0
0.0
0.0
0.0
0.0
0.0
0.0
0.0
0.0
0.0
0.0
0.0
0.0
0.0
0.0
0.0
0.0
0.0
0.0
0.0
0.0
0.0
0.0
0.0
0.0
0.0
0.0
0.0
0.0
0.0
0.0
0.0
0.0
0.0
0.0
0.0
0.0
0.0
0.0
0.0
0.0
0.0
0.0
0.0
0.0
0.0
0.0
0.0
0.0
0.0
0.0
0.0
0.0
0.0
0.0
0.0
0.0
0.0
0.0
0.0
0.0
0.0
0.0
0.0
0.0
5.0
5.0
5.0
5.0
5.0
5.0
5.0
5.0
5.0
5.0
5.0
5.0
5.0
5.0
5.0
5.0
5.0
5.0
5.0
5.0
5.0
5.0
5.0
5.0
5.0
5.0
5.0
5.0
5.0
5.0
5.0
5.0
5.0
5.0
5.0
5.0
5.0
5.0
5.0
5.0
5.0
5.0
5.0
5.0
5.0
5.0
5.0
5.0
5.0
5.0
5.0
5.0
5.0
5.0
5.0
5.0
5.0
5.0
5.0
5.0
5.0
5.0
5.0
5.0
5.0
5.0
5.0
5.0
5.0
5.0
5.0
5.0
5.0
5.0
5.0
5.0
5.0
5.0
5.0
5.0
5.0
5.0
5.0
5.0
5.0
5.0
5.0
5.0
5.0
5.0
5.0
5.0
5.0
5.0
5.0
5.0
5.0
5.0
5.0
5.0
5.0
5.0
5.0
5.0
5.0
5.0
5.0
5.0
5.0
5.0
5.0
5.0
5.0
5.0
5.0
5.0
5.0
5.0
5.0
5.0
5.0
5.0
5.0
5.0
5.0
5.1145819775712145
6.701586380455733
3.4262195688593513
4.900087724225201
2.6517200253148845
2.7022277823851395
4.408324616691149
6.816719434366791
7.363230951536807
4.936284350628748
4.849756649536208
4.9728420513275005
5.733910580940938
4.343722128333582
6.761862480674724
5.0595710537602345
5.457514385067732
3.5177126966875365
3.980650161871998
5.054987989950052
6.85535984540276
4.421948079901874
6.895477611632294
4.421601469735907
4.7463086196260775
6.121165861717953
4.155774613939428
7.224670124112233
5.898861065655828
5.707260660551464
7.343924392764033
2.661015236277424
2.9121709171367756
2.648990071966605
5.283075775813689
2.4714163709115606
4.214775769558841
3.1726996335483872
4.974407349475194
4.400031704375022
4.561791984895298
4.612828923950912
7.508388207366922
5.621211298814242
5.644354440942182
4.9116699089329225
6.273438314542093
5.600925486355351
5.711853646353354
3.394986367160436
6.917856907742848
4.338984462334528
5.181271513109538
4.490311440569819
5.928919824455362
4.416399198476724
5.475623599631906
7.308741042017437
5.818992530325554
4.530510701086986
2.304794829504749
3.188187144189841
5.6721554234139955
3.7855315190381993
5.057158758818246
4.735491224919265
2.710039609797023
5.5236060637569135
2.8512977861581126
3.659547780459347
5.386123935295245
5.0713507592558456
4.406989259561554
4.876172767677637
7.409038678758955
4.4964404630072705
3.6480290730915277
5.428365674291663
2.3775350370237724
5.418868324641791
5.298567846571694
6.21599747233025
6.036252497149215
5.272805028010761
3.9865615180347285
6.287351869914372
5.741613425052392
5.047820868251808
4.614124035366807
2.0752002047371656
3.349567590355964
4.679106352924413
2.6241878625613166
6.75257812571457
4.972456865667442
6.112890312368079
4.971041862678676
3.6013082764973663
4.336015610048758
4.426284099392109
6.834438839609461
7.26142158356942
5.5989456702138884
6.5981747743831525
8.165804011634
4.935774923356584
3.4953232731052584
8.362991339958539
1.7133486815957006
5.164258040550336
4.9202101848510695
8.355973780642527
5.142263081954942
5.237088224612784
4.808558036938795
5.028660087471092
4.775369187748702
4.882146021922141
5.693046845747498
5.032073911209052
7.762792510935785
3.610708540679187
4.896014414945709
3.6152468083091733
5.827957210833392
3.6631186753385294
5.1627315437634165
5.282792737805604
1.791514760555568
8.259312082537098
1.620297670252864
8.186251468306052
7.827148983532313
2.125648498482413
5.215745386094307
5.168049947057165
4.354242337432528
3.677736525883494
8.373282915146465
8.24525879601893
3.7578954289226325
1.6131882820745693
5.064678107215813
4.187215230327691
4.9940635838050165
4.5365305746910085
1.5773992384317996
4.491301368403696
3.748449689109075
5.020434890691689
8.295416284886558
5.1421262691034935
3.0478184917489126
5.027762258398789
4.213385646177744
4.92942061705941
5.2164321337173325
8.050313428258393
3.5638321833016504
4.160986744320771
5.113299419049008
1.565213599567892
4.835716223608369
4.918230370729752
6.596627266830324
3.5919469903977927
5.893239670480364
6.621870621155316
8.504293247605402
4.025402911230919
4.4166859347378535
6.135057488839792
6.06897278779119
7.038695713661058
6.122349907103964
4.310930108819368
1.5097110661684934
2.673164692997255
7.719546362598602
4.467040980252611
5.023442026134414
1.4538267599804424
5.812670120626356
3.5053499745640644
4.22560106102458
5.031266107141173
6.059926143076717
4.279429061580062
6.07145568751779
5.584701618282911
6.749927473758297
4.598552362649602
6.038441445693311
3.0337408894539446
4.900024598742706
4.926080496281843
4.821520453481192
1.6659045469834555
4.396531147272918
6.330554967645015
5.107399019875939
2.1891884383749893
1.5644794768717347
8.553311207725761
1.390968782674715
7.085802858035277
4.854649614326007
6.519917396416682
8.595470316961913
3.6854171469184607
8.338113375896492
5.414193761590588
5.637412737860801
1.506707194309468
6.5744291609685455
6.570889261700864
5.706236535221627
4.993645995155634
2.849208969833233
1.2613436225165273
5.650165906563711
5.06298502263127
6.9768862109710055
4.83693381779178
1.2897084600354323
5.118683554217866
4.148775160962879
6.974035816513108
6.05970486104994
1.3263108868870421
5.819086823882786
3.302113778503149
2.6254534069814133
3.5716291068866486
5.405797772864332
7.814049191499286
3.339876269687485
6.326338526297414
4.278353678973553
4.108998131228432
4.976418696750452
8.7104218073579
5.149851157826736
5.545607723461831
3.5830127903296907
4.721999550336317
5.131763483907209
8.691918849226637
4.931897280745754
6.463289957080723
4.845420581358573
6.011144939643497
4.909104435896389
5.413350831726898
4.919539510394633
4.977113525605999
5.098417418363789
5.409544312958368
5.4315035280626685
6.208723676536119
4.1411022167278215
3.9224129493312936
4.706269062580324
1.3196535927665458
4.0313313152052705
8.525008760326218
7.0246128425113685
4.731551327441422
5.014509491422667
2.367166421041446
5.002022167263826
5.021364118973582
4.806782060869541
5.450462063613823
2.4632280222104335
1.4643259378213365
3.758040559700542
3.2005217951275466
3.9913030372248532
3.7313859185279026
7.224201254077767
6.2659396226285615
2.7903645984388525
7.655170827984109
2.855810433175502
2.8062539649239384
5.3403146499220915
5.993429175344105
4.876966898654732
7.431135107862977
1.601656887267979
2.877989604948378
2.7083769973243492
5.939331803080197
4.993034595317579
4.865757936633744
4.964967392670619
4.367122020113304
2.661485400959463
3.8161527821433516
5.006912443044502
4.788317224654583
4.998075591873458
8.664505137920793
4.983382019181869
6.590760023231243
4.9856094467985965
4.915339773874116
8.384801757006603
6.600696551732099
5.946588143334893
7.729282171643973
6.1251932262629625
4.949381468428987
1.3978683859155825
3.9457259870027657
3.8726225522759337
5.534226811141533
7.415200273100503
5.140161293751632
8.825154103479923
5.710493193153707
5.186573046219043
5.587810441434933
4.448643344410856
7.383615181456377
4.345451103227063
7.722568001721606
4.885060124992962
2.837736575938313
5.589566596407773
3.744457317617065
5.44192913670284
5.097847202607349
8.342703158703435
1.147863285525347
5.677640247114094
4.674386882009863
5.659747850430671
6.060287529126862
5.27413060652787
6.517474683971606
3.9856734780589895
3.5778726564587138
2.55464846228676
2.9267468641051715
3.136646998620325
4.2097663737374384
3.3437771136577257
6.155621535893291
5.975343366812071
5.111302719663578
3.631232936259376
1.4229852395506888
6.721970446096954
1.8299461771847978
4.988897531659398
6.240306262335686
6.382961596963418
3.3393081645388314
6.442860746737156
1.0687370988458684
4.233676337453025
3.9829014746014333
5.02906506651781
4.610043680039626
5.033086656446122
4.9402118796235674
6.956741335612811
8.72831966149184
4.850869060336918
5.367452465475489
7.34375974183871
5.0946365440676304
3.6140187664271752
4.909774853054025
3.902560279554073
3.8668962148174995
1.859153080343551
5.515193290761242
4.9133676680386795
5.397714445232145
5.627462900617768
2.1813913085735255
4.791728507133253
4.758061157519379
5.120277031006257
4.154997155274419
2.8273646942449244
5.015969572051955
4.748996337247646
5.721769700627081
4.645799090528319
4.861978344675396
4.630946004727802
2.3868011781631457
4.893969632920177
3.962273613780492
4.8270797275047626
4.7421362941681435
5.0956814101914345
8.866085209534356
3.0020980840386913
2.889490973951183
1.0006454973361605
5.292431828429937
1.9951606512729927
5.242665470461501
4.601281585079656
3.867230981062156
7.079897737083609
7.7744868278774275
5.5133394141157135
7.7399930275700815
7.837140280853043
7.410057971600492
4.5849977702741995
8.920348809775986
6.032114903332403
4.327804637861887
5.581315524517832
6.272849540767807
4.737471503486963
5.250229631140369
4.705854600243255
5.42366816884755
8.81983633451778
6.115960699003716
4.519348873122289
4.683000322738358
5.544860967310889
3.997704152957076
3.081445346081381
4.702419970986379
6.703531094581364
6.068670431275406
5.189266812433924
4.5746866318462995
8.788586124422595
4.1315806983565615
4.68430451305318
8.88889140259297
8.98020240408344
5.571306157483069
4.640737238034758
4.397973796359896
5.098842606341343
6.7283814180460935
7.3322089275345705
3.887846880220522
9.00592555413153
5.363588275690163
5.308993948927624
4.353526649588191
4.995771595252907
7.413438897251786
4.504199474352701
2.1843907006057526
6.6429482423397435
5.457065037826326
4.4708893442090405
3.363912171176131
7.369255380552772
0.939392568055458
7.717032098713534
5.359288570833765
5.361223774600046
4.973062314099377
4.855115126971484
2.0936015226426217
6.194172698809257
5.564875247324917
2.7943574614109568
4.976061075852403
8.785069814257211
4.094311184234451
7.742774915814957
3.9864183910152127
3.468306518290667
4.76078260816202
3.695406466210041
4.056132293896732
4.9914711404001375
6.6486002833183955
3.2336385583269394
7.141547774648056
6.676628343702792
6.126776216723155
5.011771646917732
5.641446457204362
3.9043005426160087
7.358389729080233
2.3464992080177325
6.494528802917411
1.154130934860685
3.918170652030165
5.878232715437232
5.677327846385637
5.7399329505529115
9.03281185335918
5.779796740878985
4.953855959668886
1.8259702175388954
5.218403434733673
6.2924903599258615
9.03902358200958
2.043793523060866
4.398883181183732
7.177337910970104
4.683953642557745
5.291870419596935
0.9433819222688752
4.494858923888036
2.916840204919959
5.066769816749727
5.00465928668126
4.675623292948171
5.790335992937204
4.776541099664401
3.1219495785358444
5.3449728500136215
4.918631293680302
4.921842694993506
3.04826137189535
5.0891759045426594
5.0632518439757215
2.1750788776887635
1.7614357914390228
7.42259482264243
4.408526036438309
2.086275296961857
1.0163962506657958
3.2288261060566565
3.6261718854108578
7.850750491776717
7.3897882484955035
3.9818451326386817
4.997999096072247
6.013999816281898
6.0835089707419865
4.114867160496329
0.9082463842989219
7.860939874842011
4.121068899288375
4.963792966985789
4.9630588035915775
5.033611304008999
7.1263910522177305
5.103301671753345
8.108387153012904
3.235300837979911
5.254695802920767
6.030243043544073
4.076190547028436
4.2380897470037535
6.036182108774168
3.5551059771266997
4.523205717547417
0.9221589402231761
6.765966085214299
5.4022858920591315
7.659113440936647
5.300649123731363
5.865282926530291
5.616709758735443
1.5267118455709388
4.635285843202308
4.39616435258536
5.476946837042369
3.2795976361980963
5.417920146331471
9.03736368121903
6.797486463826534
4.89459832154917
7.915231051061611
4.962437029900655
4.068704553788075
9.106310604930218
5.178962019862191
4.073843723403054
4.9718914456001695
0.9161605786986204
6.147918469630515
3.399973394907244
4.299799027549653
3.5179639624490484
5.911254630102303
5.219810480873061
2.4800600994060047
8.455874051500675
3.3213383078030856
2.2848080902167904
6.477071369772586
4.469497890564616
5.2841821711690145
6.063927354290894
2.356583413187863
0.9114279024211542
0.892032247454959
5.5551716705867955
4.079649009528695
6.368644521839907
0.9441498825522692
6.247614074143275
9.098584310796612
5.268294919902392
4.946796537355642
4.735984189180875
6.6460509616333185
4.223066192852968
3.126505266026335
7.264602027295167
0.880501220629601
3.3354211212223417
4.386700770661248
5.1234315467529825
3.1556420031692283
1.9935861052422426
5.03838084533802
5.381694800329959
5.70984167228626
8.776718537750074
9.038797660213326
6.443734223810973
6.711977350928944
3.17809061803304
7.879237397193039
6.416840110051101
9.131723989651357
6.296890657069379
9.081537549441302
4.9827227570367425
6.26783426071961
2.9769430904517953
5.025424786330525
5.204120754819439
5.175172615701745
0.9576906421923166
4.277941721885765
3.291729190427735
3.7779029882363098
5.521193088763658
5.660946900903056
7.193652581625494
4.016306297966486
4.983973382356981
7.087445521784257
6.120639406962158
4.150738734624169
6.317515327527128
5.460834713530983
4.997128091741876
9.12904354388647
2.5453667899908874
4.873282515886477
5.771711808906044
5.752668941347619
6.605818147918289
9.088903485632331
4.383125482033089
4.1605956033654765
9.135299481085019
5.748325823897587
4.091406806478238
5.001967170894807
4.449530319045399
3.991638838109923
3.0897777104988817
5.099911519835523
3.6222551180304454
6.28459229971661
6.750602564804856
3.0853399563275477
8.314965119672094
4.953909202457746
6.357053417007385
5.935410303143114
1.6509492764368983
5.636607306874713
3.2701744231785494
3.91705005428733
4.336557408426255
6.547528785509232
3.9257364805986645
6.277882945931482
5.007784203066535
7.112404645340192
6.442820209654091
4.489628266490743
5.0965604755363785
4.444210973923402
3.594376453093166
1.9907171051712096
5.383008779794001
4.359568067649462
5.546173335383302
3.777863314458055
2.3106780165760505
4.99560189969736
3.65632084313543
4.446267641657708
2.240389830397312
4.478288287724489
5.305651511427357
9.141702888219292
5.790622384596506
6.6875173016308445
3.1189601893249077
5.117729429568714
5.088582680414703
0.9079312671406501
2.1915888764833387
4.415773285654241
1.9775619771695887
7.785189526036776
4.13921294946408
5.364432926143956
5.225714924860645
4.667672997052307
4.942740980962854
2.28952747711591
5.0327355213306095
7.3064306670807895
7.172424391224836
9.156933936232257
8.069191591116192
4.673726887757751
6.459939889380865
5.012299353416544
4.981115296713398
5.70910887255403
4.734669976228697
0.8560222371199362
4.543101731217728
4.925344593675473
3.6732670824375333
2.1649326597165346
4.272209787392815
7.814847766074326
6.028229446330576
4.861642259353628
5.955996324728695
2.1634292223250395
5.753157743675019
0.8695961615426794
5.5371171113494295
0.7962024580042806
4.579478278227807
2.3289854823650136
0.8602527515006048
4.642187375055709
0.8251330484792092
1.6304898461485284
4.992902945084538
5.6321452989663285
4.937354274507509
2.427408050475413
3.9174522133783487
4.989723076976553
0.8159203612857705
4.675341672609353
4.282480967520179
5.015100493864358
3.1595843159116432
0.8116024524877341
4.317841651628862
1.9482359708607502
4.818093238675829
6.820546228610186
5.787414683365376
5.384379072647958
7.92732836275272
6.076501699976532
5.7918251695009895
5.03397987951177
3.5881840635312416
3.451075847441141
3.195550652824112
4.874338431697277
0.8366681578474741
5.2322563645627715
5.30335503555223
4.623073853831858
4.579097514120229
5.956212396866043
9.143192322248488
5.069659263661981
6.964377530436247
2.2070638409199215
5.086079428565793
7.111885514562239
2.1762905155744368
3.4787960175051507
2.2545408574943573
1.6167196446142436
3.9308036992830533
4.5102375889981605
3.340894482658937
5.79606967380407
6.8073977930016
5.204383786816661
8.32548383840766
6.398012039011561
9.140618959157534
6.326684757374008
4.931142831748462
5.9385497019513735
2.494357410710187
4.713131654634436
2.9132244628320723
5.148190950279644
5.2613887572509315
5.795586358171036
4.371375266668587
0.7934747982616273
5.00796208527837
4.196696478543043
7.741558823775059
4.361351264202588
6.65214710456018
1.9537189199404925
5.674152027098869
6.577687898640073
3.029141731212833
5.359986162479771
4.983412250487471
2.7680367647892044
6.446233848720739
6.995906275558444
5.279394568907967
9.216036237479656
4.401010962771993
5.005536792174993
4.735182350656717
4.813175609836827
4.419273422139825
5.708331898163279
5.702681824609003
2.7140493163468986
5.83810841777085
4.253382849214
4.961574674550312
6.334775724723917
4.949952725803477
2.8926165484766155
9.194083596779727
9.091700028228507
5.621251742798269
2.696625322903936
4.909628808912791
6.292047820212185
5.629870243722557
4.587675696965419
5.051791533265989
3.7348487258475473
5.911805070982633
6.000160534651904
5.371070252538705
3.493708117333425
5.638880775676726
8.165442247882915
7.001784706075498
3.3384441098124817
2.736340032147499
4.064256938361405
3.9620729631603915
6.93359897751704
3.875264843381916
6.077590903914155
4.752182531401085
5.038405074595859
4.84292073074691
7.76943017875417
3.9828303826451834
5.121773526609954
0.8078756689090625
3.1486179674624526
6.914241754916241
3.322495325734184
7.685560606471265
5.002559673661019
5.05228708204247
4.905562559450742
4.197677420105144
3.0868736378742976
4.625710695255889
4.009312990090487
1.7211758441436766
4.78793155594641
5.93153202551414
6.472445913794356
8.346684014768826
4.437656857152906
0.8082992279700303
5.2009501752043406
5.136866501749735
6.613724894028489
3.3295842596347947
5.325953439347088
3.733931602795299
0.8238014695822893
1.8221480854665177
8.054244069593262
4.853275081753566
5.805987417775355
4.690824191038314
4.893103965528483
0.783676055855152
6.144158183458938
5.007795650139607
4.233761007829452
7.6460413841776225
4.1552314317195
4.241324063674775
2.6148952678890462
5.354807386164863
8.200260275855666
7.981560676713176
6.261200479219809
4.605460046850506
8.480374364973912
5.010835893113269
4.659839167583319
8.079093254354776
5.83028484103933
5.635437366776026
3.851533821755653
1.577003491160828
4.697124448251897
4.187168072906017