# vtk DataFile Version 1.0
2D Simulation C++
ASCII
DATASET UNSTRUCTURED_GRID
FIELD FieldData 1
NODES 1 2 int
8020 15790

POINTS 8020 double
0.0 0.0 0.0
0.0 10.0 0.0
32.5 10.0 0.0
32.5 5.0 0.0
32.5 0.0 0.0
13.0 5.0 0.0
0.0 0.4761904761900502 0.0
0.0 0.9523809523801738 0.0
0.0 1.428571428569921 0.0
0.0 1.904761904759007 0.0
0.0 2.380952380948093 0.0
0.0 2.85714285713718 0.0
0.0 3.333333333326267 0.0
0.0 3.809523809515354 0.0
0.0 4.285714285705605 0.0
0.0 4.761904761896805 0.0
0.0 5.238095238088004 0.0
0.0 5.714285714279203 0.0
0.0 6.190476190470403 0.0
0.0 6.666666666661603 0.0
0.0 7.142857142852802 0.0
0.0 7.619047619044002 0.0
0.0 8.095238095235203 0.0
0.0 8.571428571426402 0.0
0.0 9.047619047617601 0.0
0.0 9.5238095238088 0.0
0.4779411764706936 10.0 0.0
0.9558823529413413 10.0 0.0
1.433823529411887 10.0 0.0
1.911764705882415 10.0 0.0
2.389705882353341 10.0 0.0
2.867647058824476 10.0 0.0
3.345588235295611 10.0 0.0
3.823529411766736 10.0 0.0
4.301470588237381 10.0 0.0
4.779411764707864 10.0 0.0
5.257352941178345 10.0 0.0
5.735294117648827 10.0 0.0
6.213235294119309 10.0 0.0
6.691176470589792 10.0 0.0
7.169117647060273 10.0 0.0
7.647058823530756 10.0 0.0
8.125000000001236 10.0 0.0
8.602941176471717 10.0 0.0
9.080882352942195 10.0 0.0
9.558823529412678 10.0 0.0
10.03676470588316 10.0 0.0
10.51470588235364 10.0 0.0
10.99264705882412 10.0 0.0
11.4705882352946 10.0 0.0
11.94852941176508 10.0 0.0
12.42647058823556 10.0 0.0
12.90441176470604 10.0 0.0
13.38235294117652 10.0 0.0
13.860294117647 10.0 0.0
14.33823529411748 10.0 0.0
14.81617647058796 10.0 0.0
15.29411764705844 10.0 0.0
15.77205882352892 10.0 0.0
16.24999999999941 10.0 0.0
16.72794117646989 10.0 0.0
17.20588235294037 10.0 0.0
17.68382352941086 10.0 0.0
18.16176470588134 10.0 0.0
18.63970588235183 10.0 0.0
19.11764705882231 10.0 0.0
19.59558823529279 10.0 0.0
20.07352941176328 10.0 0.0
20.55147058823376 10.0 0.0
21.02941176470425 10.0 0.0
21.50735294117473 10.0 0.0
21.98529411764521 10.0 0.0
22.4632352941157 10.0 0.0
22.94117647058618 10.0 0.0
23.41911764705666 10.0 0.0
23.89705882352715 10.0 0.0
24.37499999999763 10.0 0.0
24.85294117646811 10.0 0.0
25.3308823529386 10.0 0.0
25.80882352940909 10.0 0.0
26.28676470587956 10.0 0.0
26.76470588235005 10.0 0.0
27.24264705882053 10.0 0.0
27.72058823529102 10.0 0.0
28.1985294117615 10.0 0.0
28.67647058823199 10.0 0.0
29.15441176470247 10.0 0.0
29.63235294117295 10.0 0.0
30.11029411764343 10.0 0.0
30.58823529411392 10.0 0.0
31.0661764705844 10.0 0.0
31.54411764705488 10.0 0.0
32.02205882352551 10.0 0.0
32.5 9.537461488542442 0.0
32.5 9.110247661661234 0.0
32.5 8.71632942187684 0.0
32.5 8.352920100732035 0.0
32.5 8.01743999118337 0.0
32.5 7.707496624142298 0.0
32.5 7.420866028058171 0.0
32.5 7.155474507589394 0.0
32.5 6.909381108865262 0.0
32.5 6.680760044735282 0.0
32.5 6.467883039656645 0.0
32.5 6.269101165071082 0.0
32.5 6.082826501034357 0.0
32.5 5.907513254806567 0.0
32.5 5.741637403567569 0.0
32.5 5.583679879813552 0.0
32.5 5.432108661311174 0.0
32.5 5.285367159979229 0.0
32.5 5.141868793061765 0.0
32.5 4.858131206938235 0.0
32.5 4.714632840020775 0.0
32.5 4.567891338688829 0.0
32.5 4.416320120186453 0.0
32.5 4.258362596432438 0.0
32.5 4.09248674519344 0.0
32.5 3.917173498965652 0.0
32.5 3.730898834928929 0.0
32.5 3.532116960343367 0.0
32.5 3.31923995526473 0.0
32.5 3.090618891134751 0.0
32.5 2.844525492410622 0.0
32.5 2.579133971941842 0.0
32.5 2.292503375857717 0.0
32.5 1.982560008816647 0.0
32.5 1.647079899267982 0.0
32.5 1.283670578123176 0.0
32.5 0.8897523383387922 0.0
32.5 0.4625385114575638 0.0
32.02205882352553 0.0 0.0
31.54411764705491 0.0 0.0
31.06617647058444 0.0 0.0
30.58823529411398 0.0 0.0
30.11029411764351 0.0 0.0
29.63235294117304 0.0 0.0
29.15441176470258 0.0 0.0
28.67647058823211 0.0 0.0
28.19852941176165 0.0 0.0
27.72058823529118 0.0 0.0
27.24264705882072 0.0 0.0
26.76470588235025 0.0 0.0
26.28676470587978 0.0 0.0
25.80882352940932 0.0 0.0
25.33088235293885 0.0 0.0
24.85294117646838 0.0 0.0
24.37499999999793 0.0 0.0
23.89705882352746 0.0 0.0
23.419117647057 0.0 0.0
22.94117647058653 0.0 0.0
22.46323529411607 0.0 0.0
21.9852941176456 0.0 0.0
21.50735294117514 0.0 0.0
21.02941176470468 0.0 0.0
20.55147058823421 0.0 0.0
20.07352941176375 0.0 0.0
19.59558823529328 0.0 0.0
19.11764705882282 0.0 0.0
18.63970588235235 0.0 0.0
18.16176470588189 0.0 0.0
17.68382352941143 0.0 0.0
17.20588235294096 0.0 0.0
16.72794117647049 0.0 0.0
16.25000000000003 0.0 0.0
15.77205882352956 0.0 0.0
15.29411764705909 0.0 0.0
14.81617647058862 0.0 0.0
14.33823529411816 0.0 0.0
13.86029411764769 0.0 0.0
13.38235294117722 0.0 0.0
12.90441176470676 0.0 0.0
12.42647058823629 0.0 0.0
11.94852941176582 0.0 0.0
11.47058823529536 0.0 0.0
10.99264705882489 0.0 0.0
10.51470588235442 0.0 0.0
10.03676470588395 0.0 0.0
9.558823529413484 0.0 0.0
9.080882352943018 0.0 0.0
8.602941176472552 0.0 0.0
8.125000000002085 0.0 0.0
7.647058823531616 0.0 0.0
7.169117647061146 0.0 0.0
6.69117647059068 0.0 0.0
6.213235294120214 0.0 0.0
5.735294117649747 0.0 0.0
5.257352941179281 0.0 0.0
4.779411764708815 0.0 0.0
4.301470588238345 0.0 0.0
3.823529411767876 0.0 0.0
3.345588235297406 0.0 0.0
2.867647058826943 0.0 0.0
2.389705882356477 0.0 0.0
1.911764705886007 0.0 0.0
1.433823529415552 0.0 0.0
0.9558823529450926 0.0 0.0
0.4779411764744665 0.0 0.0
12.99649054800746 5.059136585454831 0.0
12.98601145704154 5.117443022884978 0.0
12.96870983056897 5.174100817712063 0.0
12.94482854549955 5.228314618692611 0.0
12.9147028427276 5.279323382898116 0.0
12.87875562108363 5.326411059091987 0.0
12.83749150076208 5.368916639518141 0.0
12.79148973956047 5.406243439000523 0.0
12.74139610136923 5.437867471095694 0.0
12.68791379106117 5.463344803714272 0.0
12.63179358303867 5.482317790953049 0.0
12.5738232820059 5.494520093660388 0.0
12.51481666391628 5.499780418254248 0.0
12.45560205234314 5.498024921308019 0.0
12.39701069063436 5.489278246150786 0.0
12.33986507307363 5.473663176928802 0.0
12.28496739886616 5.451398914984977 0.0
12.23308831102214 5.422798001753777 0.0
12.18495607821355 5.3882619313626 0.0
12.14124637148172 5.348275514535506 0.0
12.10257277929685 5.303400072913917 0.0
12.06947819411915 5.254265559329403 0.0
12.04242719138054 5.201561714648646 0.0
12.02179950786311 5.146028385322994 0.0
12.00788471102703 5.088445137565878 0.0
12.0008781341181 5.029620313951246 0.0
12.00087813411758 4.970379686057478 0.0
12.0078847110255 4.911554862442619 0.0
12.02179950786071 4.853971614684875 0.0
12.04242719137748 4.79843828535831 0.0
12.06947819411544 4.745734440676881 0.0
12.10257277929276 4.696599927091444 0.0
12.1412463714773 4.651724485469053 0.0
12.18495607820891 4.61173806864117 0.0
12.23308831101738 4.57720199824923 0.0
12.28496739886139 4.548601085017295 0.0
12.33986507306911 4.526336823072724 0.0
12.39701069063074 4.510721753849976 0.0
12.45560205234036 4.501975078692229 0.0
12.51481666391377 4.500219581745677 0.0
12.57382328200409 4.505479906339344 0.0
12.63179358303691 4.517682209046471 0.0
12.68791379105949 4.536655196285043 0.0
12.74139610136785 4.562132528903549 0.0
12.79148973955924 4.593756560998597 0.0
12.83749150076097 4.631083360480839 0.0
12.87875562108282 4.673588940907068 0.0
12.91470284272705 4.720676617101068 0.0
12.9448285454991 4.771685381306513 0.0
12.96870983056872 4.825899182287277 0.0
12.98601145704154 4.882556977115021 0.0
12.99649054800746 4.940863414545169 0.0
7.073511818157784 5.029858106690903 0.0
17.67603798857397 4.649358480801971 0.0
15.51980788912356 6.783494195813232 0.0
15.24030926133367 3.301034215125739 0.0
13.39059288836667 7.665452611149339 0.0
13.33514844902125 2.515057572337582 0.0
27.553726077251 4.955240489983595 0.0
22.60857819543648 5.043377811891269 0.0
30.01625868918043 5.078925927923772 0.0
11.19297549976485 7.384682718964267 0.0
9.913591360931012 5.597812236399048 0.0
10.04661743668775 2.862045395459429 0.0
14.76311500660768 5.145231681905746 0.0
13.93415145135789 6.112125351721792 0.0
14.03987710546389 4.090550796371788 0.0
20.00816164836775 6.837040357041489 0.0
20.22381786441784 4.337963247564542 0.0
25.1329061859065 6.895466842262173 0.0
25.06880113185684 4.339944452449635 0.0
17.72490569462317 6.922862317663928 0.0
13.16553194449592 3.631121279679936 0.0
11.77172088997807 3.185614210999985 0.0
10.57080955409767 4.323632968643673 0.0
13.91374377034483 5.084525880351088 0.0
30.13837285288164 2.736943774153813 0.0
12.97714803757993 6.438898575667718 0.0
11.89449802586309 6.462099473095058 0.0
11.08978250379689 5.730765266542148 0.0
28.65013350140359 7.343592486893503 0.0
21.08179294637462 5.638501419456028 0.0
21.49158692053135 4.420290685252384 0.0
23.28442575507175 2.658030965354746 0.0
19.09405392331934 5.481019786072337 0.0
18.88266169897797 4.20529661880032 0.0
26.10650085401382 5.579605328008349 0.0
26.41580788833501 4.297493346632965 0.0
27.96475993459018 2.810539684373072 0.0
24.12776459459526 5.630050196805615 0.0
22.63763545154895 7.303303006873923 0.0
23.75109720100921 4.357280599395128 0.0
16.32050101350298 5.447792404892583 0.0
30.67863146211478 6.800393022159044 0.0
17.42644006231847 2.375052911461899 0.0
28.84500602434805 4.065613395093855 0.0
28.79695564407173 5.339606801593252 0.0
31.01716197780903 4.004828857038862 0.0
27.36457120726818 6.475514765756182 0.0
16.45539470303436 4.088685492428338 0.0
20.96898099022273 2.194896074976588 0.0
25.69785900402101 2.205498290035236 0.0
31.25176458844598 5.366028913062479 0.0
20.11562171518809 5.323585339276074 0.0
25.09984510603475 5.349907005245907 0.0
19.63064698628524 2.939530820413007 0.0
13.49716835598666 5.580774780603931 0.0
13.54768410031616 4.538493110427036 0.0
29.62357871714568 6.206937429376904 0.0
29.91248767644818 4.000852798510447 0.0
15.69846147335297 4.692355047290491 0.0
22.61507142250197 3.767820463331825 0.0
11.25134206359976 5.006792733438411 0.0
11.48189499429742 4.318487083078582 0.0
12.0623594961527 3.872680352387852 0.0
24.38836200014506 3.25861828363312 0.0
3.630799280908311 3.630116459842547 0.0
[...]
POINT_DATA 8020
SCALARS Psi double
LOOKUP_TABLE default
0.0
10.0
13.384229347739891
4.914733970598153
0.0
5.0
0.4761904761900503
0.952380952380174
1.4285714285699211
1.904761904759007
2.380952380948093
2.85714285713718
3.333333333326267
3.809523809515354
4.285714285705605
4.761904761896805
5.238095238088004
5.714285714279203
6.190476190470404
6.666666666661603
7.142857142852802
7.619047619044003
8.095238095235203
8.571428571426402
9.047619047617601
9.5238095238088
10.0
10.0
10.0
10.0
10.0
10.0
10.0
10.0
10.0
10.0
10.0
10.0
10.0
10.0
10.0
10.0
10.0
10.0
10.0
10.0
10.0
10.0
10.0
10.0
10.0
10.0
10.0
10.0
10.0
10.0
10.0
10.0
10.0
10.0
10.0
10.0
10.0
10.0
10.0
10.0
10.0
10.0
10.0
10.0
10.0
10.0
10.0
10.0
10.0
10.0
10.0
10.0
10.0
10.0
10.0
10.0
10.0
10.0
10.0
10.0
10.0
10.0
10.0
10.0
10.0
10.0
10.0
15.127920007632728
13.97555145588752
10.745126181016404
8.021989200816993
6.4023963709245315
6.14280699871868
6.639741020505776
6.933965252344263
6.799935450626104
6.5395926207212565
6.313178432418997
6.1288144441832095
5.956608205654251
5.791236052189655
5.632915104587085
5.482342200456256
5.337186809801033
5.1948201892845365
5.054317981432848
4.774696062897585
4.632496067687839
4.4867442870571805
4.335765138461101
4.177734939002536
4.010933375549486
3.8342393888365387
3.6458847163961177
3.444923377758869
3.2333526426763624
3.007248692767529
2.744840926181361
2.4125882042594804
1.9888625050229516
1.5293017166366787
1.2814895444083159
1.4288203522402638
1.7533731916242454
1.3891702219073228
0.0
0.0
0.0
0.0
0.0
0.0
0.0
0.0
0.0
0.0
0.0
0.0
0.0
0.0
0.0
0.0
0.0
0.0
0.0
0.0
0.0
0.0
0.0
0.0
0.0
0.0
0.0
0.0
0.0
0.0
0.0
0.0
0.0
0.0
0.0
0.0
0.0
0.0
0.0
0.0
0.0
0.0
0.0
0.0
0.0
0.0
0.0
0.0
0.0
0.0
0.0
0.0
0.0
0.0
0.0
0.0
0.0
0.0
0.0
0.0
0.0
0.0
0.0
0.0
0.0
0.0
0.0
5.0
5.0
5.0
5.0
5.0
5.0
5.0
5.0
5.0
5.0
5.0
5.0
5.0
5.0
5.0
5.0
5.0
5.0
5.0
5.0
5.0
5.0
5.0
5.0
5.0
5.0
5.0
5.0
5.0
5.0
5.0
5.0
5.0
5.0
5.0
5.0
5.0
5.0
5.0
5.0
5.0
5.0
5.0
5.0
5.0
5.0
5.0
5.0
5.0
5.0
5.0
5.0
5.029898938434368
4.652598901118355
6.742449143981084
3.3524624185241825
7.561850087261963
2.6325678746370227
4.95377706563245
5.044553369016189
5.04626905571504
7.288394711204283
5.572607244441002
2.9162381098084778
5.135802412751172
5.976831108711145
4.210112712497393
6.8355055697035825
4.339511539361394
6.900701682248361
4.3406454300546695
6.913547253203026
3.8673787774393564
3.3492319645131214
4.377943879717877
5.0672526600682835
2.701791117135517
6.1941648003965115
6.252306442467907
5.631799984301993
7.385091251734178
5.638945611342717
4.421425000336934
2.6584751107024966
5.480368120760241
4.208394036630395
5.583421732473249
4.296464529213332
2.8010002413324653
5.632272826713136
7.304506995465173
4.358329445203434
5.440299765146213
6.777181587577834
2.3877906514386487
4.047951147711698
5.333215595540196
3.942800727657817
6.4879232041542245
4.1040081378380115
2.1965221682911436
2.203803502358043
5.295039143094198
5.323871042931401
5.352414631574776
2.9430094728653087
5.378927258569774
4.711384514522803
6.2071191957863165
3.964871354965324
4.703046966343038
3.7687964871651194
5.007179608286159
4.479907926623916
4.155926624372178
3.2586841583248964
3.6308728508274184
5.826483023927243
6.151382379393308
5.877878812460103
6.787150793630539
6.832200463041638
5.40918800063596
4.301721077690458
6.487941904321954
3.7876768668270753
7.680575306925964
5.611122862008696
5.0644412410108774
4.808834181661816
3.5075062933690617
4.774765851824583
4.8338552022867916
5.174669512112179
5.829474361200622
4.823259957293321
6.853103574309408
5.4598445895666385
5.933539241718524
7.012855490999309
4.547475971792359
4.809559169318175
3.390065002580838
5.135682512931274
5.739459560068609
6.273102093882968
6.707490417305646
8.23391750982286
5.749671160757518
3.3590904689070302
5.504836425853788
6.364013385076742
7.653968937522005
4.67796384380446
4.763522141306089
4.210816524318617
4.501291535676653
4.689127052847989
4.341243515165289
8.240534074853526
2.8211968962161422
5.586549497945013
4.714194116537364
4.161430579187213
2.915690374906397
4.458531362761327
4.124093083272051
6.177474226769927
5.026205471343023
4.165644702076185
4.5576052376789375
2.4660501623051285
4.195649856020019
4.6007473466633995
5.375070942665128
6.121193915131721
5.942070897734471
1.7413866696310616
2.7856698163865743
6.096931326281191
4.105016048493962
8.37363018672712
3.5729716608567172
5.949025871994377
1.9017443122827262
8.359379617113397
7.623629262807307
8.508310532134162
3.1384961579916997
3.2062745651432927
1.8651991391365674
5.217710603722699
6.080158597104264
4.6912054764311275
7.9656600845422485
3.9779308410613208
6.08978947424625
7.322364249918672
5.458767123942035
5.428524004576033
3.2918306092020533
2.0054229280260873
4.856690299602352
5.110510939670309
5.511250931407828
7.126361978514001
3.8103531209192414
5.644103029135485
4.9325867712466005
3.5248359809137946
3.9861558126740584
6.538053065450292
1.6664361951929754
5.273553902375532
4.150727334993084
2.4289168927902187
5.2546007983507454
7.946298863363549
5.563673678029239
5.795460937837577
3.537165893868767
7.787071286811613
3.33752136964261
5.1998454189331715
5.614664902790558
7.103864336395464
8.212094502695232
4.8753370798977
6.114276536809673
1.4645826184068609
1.3521706718679443
4.4918194623125896
3.3460540053991146
2.0796056008520805
3.535992959654825
4.748446039428605
4.346238101173046
5.377810696671537
5.319352954172852
4.804190007840991
5.1570220777543945
6.007537097025623
8.532331693256257
4.629180704652161
5.086554876637241
5.331017568668094
5.372649313566578
4.812038680122583
3.6791260240924353
5.102386930857768
1.7930628042068422
2.0498700553907345
3.741265608059918
3.3842601395572176
5.334914126550987
6.461398422804408
7.332639001800825
6.595546697051851
5.640323926338689
6.22619390474802
6.725089202565506
7.85203016638687
5.850454720497907
5.406576759293695
1.7643741432413247
4.882027510381665
5.281522304159596
4.8549587465713175
5.637597942190463
5.824039929174872
5.161333487622245
3.393912437025609
4.811515979818369
6.0186989170772245
8.468174898036288
4.149120081566062
6.721933230520177
4.976055090675697
1.2527470587040295
9.167909551970025
5.141538862703606
5.9226837209834935
1.8159996054254375
4.326929762944291
4.041294931061565
5.805995396498881
4.669211011599148
6.146824052572027
4.340537303069729
5.559389538689415
3.8027678651244172
8.751902878380626
4.639786354868777
7.777072832133379
6.226215396613648
3.9930517957893388
5.2927241425809965
7.195343944663795
4.408733520645767
5.545100539368424
4.759218648851388
4.95582553036095
3.0091335999114115
7.361569989144612
4.0443211896692555
4.7035972642141335
3.8910047258124814
5.383114585127366
5.7689227099007585
3.781894262740774
4.99353712485336
8.716570233583576
5.796161987367934
5.1886935444690945
4.703014300099414
6.061249159998592
5.114950368828939
6.475603313387602
3.7333628443793274
2.156054021649634
1.3851917110962784
6.181712578460166
2.712030672364361
3.981136990446928
3.7948716800248965
6.8827614266214585
5.152667585835898
1.5220930828587131
3.521853561616031
8.64710544407492
6.355566033159929
6.786504959856957
2.8579851323017413
8.338537333819193
5.130022031246125
4.697396776952262
4.99860632359892
1.446393724369181
6.481169772877301
3.6543844302609148
4.981622496479998
5.038518512197305
4.276815104347413
6.123806135383963
4.278264809220607
4.708058464823101
4.466231316586279
5.018980181041599
4.744123160791918
4.684786631840629
4.713408189580484
3.892579124607431
3.7234761932278446
4.706572115842072
4.71987000822819
4.222595344552893
4.992892942165762
4.6574589010880185
4.49150258859826
4.7347648435232825
2.8740563495629594
4.35592496451048
6.276369337316674
2.560421630560561
5.1509946951442425
5.039843154293476
4.563154026850825
4.574992847468099
5.085328937357298
5.395171364364589
7.150892813371382
4.563559457563562
4.046807727924413
6.387513766501047
4.502733133337784
7.8298765665398955
4.3048620826604
3.9054024176049174
6.023197063516682
7.471621260714592
5.083506738152251
5.512909713069101
7.439573041878047
8.50970626308536
6.62807304287129
3.4834950839224867
6.421658770058243
6.5127411359438225
3.4024368831648983
3.414525197940017
3.1687473346128563
8.738764560600059
1.256482676019533
3.931514409364138
5.048150283210697
7.6538902442665115
4.282273746222493
4.544259140233733
5.681812156313602
6.172897317032696
4.826309215304857
5.09005859422391
3.777524609816028
5.2342500402949845
8.661243616598142
4.644809548837942
5.007304898284601
3.1949710169331804
5.6219153209391886
6.020055263982563
3.2431345715017597
4.449828300315599
5.175148164734653
5.675502334060324
5.491431516647403
5.456080948751827
7.495832755734151
3.3628753546533057
2.771631752243549
4.864570990338279
5.913149493202472
3.155399737501641
3.7892121988836958
6.501568291385313
7.083645289800996
4.545741389769562
1.5730729386960098
2.6172522272753107
5.848685458848597
5.7255850707404505
5.315278578585202
4.585967210516145
4.258038479431407
4.681551030668151
6.545087894386444
6.625256077350586
6.668749334361768
6.9829897013063205
3.6899510920556238
1.1446861207888248
4.441270186644198
1.3192471870000155
8.504181946212375
6.249528767163347
5.491354619847597
2.8096164947720106
5.991982667193015
5.822435031121286
5.077245571824366
7.215888605531505
4.024630196516441
4.294696536708303
1.7692835569969332
5.77610894152895
5.134664318540596
3.062294958338624
5.436868019645293
4.888879170241224
5.4342179165186115
3.623517363907525
4.789522279330618
4.9208290918942055
3.815870171094565
5.087212824480589
1.2540955624384489
3.2424213248024585
5.469324423672975
2.4550057693321725
8.059830261707322
6.287785668500605
5.808916655498541
4.3786511423300905
6.221996142302638
2.979532127941123
5.399072364831247
6.8737245498750505
7.182217523321835
5.695009692776341
5.675910552786263
5.340655467794623
4.14752337210488
6.215457012264868
1.943931079119459
4.473851127887652
4.208259747666573
5.181211686273829
5.0196742830759895
6.163812489892314
6.62969607091763
6.60721797955807
5.791673594908536
3.949282997523051
3.671494821106195
5.414862915660158
5.018280137256004
8.923512945462045
4.524958535960602
5.3057721932974395
4.148382112490932
5.848832769309731
5.45932425193297
1.3856079628706337
3.8642114253743305
6.357845128899443
4.380428565249537
1.943200736602476
2.424667304460418
5.332271093677664
4.158508806233125
6.523173307605354
4.290842758392041
4.424238577558448
8.934341655029117
8.75426111557198
7.278514914162323
8.211017239123349
5.010610873011235
5.327627779127921
4.751805598321307
5.607160874344436
5.709750833600287
5.501761505419971
6.822699049407999
8.83192178563979
2.2200240673333598
4.538325358840372
4.82242638928579
4.440867354491224
5.790159577103148
6.659584698807954
8.897168227400618
5.833411942656017
4.285238820975295
6.000620245297898
2.964748284987204
4.375036231537521
4.3310530098227975
3.6870743584827914
7.616666651181367
6.683230973079816
5.877759241701732
5.14004229957029
5.122106391157729
4.2701019446953685
2.5419248187171415
2.6285968007719682
7.852089346658936
1.280964006670594
5.4335923577879885
4.770809161406242
3.6866848508893586
1.0774170352259067
6.732707798746278
4.440306101251716
5.124311553857772
5.438045835259908
5.326755946027304
8.709582379127335
4.390093614902713
6.534720694215359
6.087670327494098
7.793046487864833
7.948720689029412
3.260470798377083
6.207019794960218
4.474683046275134
4.229477325287766
4.216591010294207
2.547835512822976
1.9736193014601031
4.539874203602087
5.001737059752487
5.605984622319303
5.258741455668479
4.0385040522066555
1.0986449355409238
3.8563184049741692
3.6085276561333792
4.881116657976398
0.9923811539147155
6.276313748883078
5.903008784965436
4.48616624709316
4.478307766371864
4.908751499876667
4.6153926013524655
5.880006110228299
5.578735864948482
4.847024981544767
3.266858128808243
8.484135770908603
6.282547226588806
4.892162631597633
5.175568897410728
3.9738873586174215
1.9328108091059133
5.755383384853345
4.470371984124561
4.977161440863414
1.0058266062107064
2.5199850172806073
8.791612040530717
3.4527263898061458
5.853112299359105
5.797144915122709
5.157630330053481
3.988839591635251
6.69995955741291
8.957394048812038
7.576808570536179
2.7985468248065106
1.2366445083149114
5.679499736699361
6.303045770319424
4.618487917589828
3.8069882907941146
9.02062850913381
3.830926035874617
7.944411673246284
4.180054612323553
5.099243272874439
7.20991582155704
8.675000108536716
4.69050122116139
5.118762331836652
4.910879250399673
2.77599388068263
6.186024140341232
6.604777853130229
3.376127654810752
2.5270998518792425
3.5294011387256674
5.644198929227994
5.684709361339486
4.9912324084152555
3.899726764686101
1.1009680732016356
3.7978447573206378
4.9162498232847085
5.743943945827341
7.210543434058789
5.866151126904831
2.665774991472767
3.83189546343221
5.858319620391034
4.891799790276447
7.134319724136634
4.980183485359122
4.0158890739005555
4.729745530764589
2.0814182986747234
4.818791794830379
1.986213671385474
4.99029115012748
5.724750548863616
7.332722823993926
3.2483707455375126
4.347353466663234
4.316236607979529
5.274669785742691
5.005561537056511
4.859437233606771
2.7318316962656395
4.582594705869445
3.3612729411898594
3.6287171793632114
5.515037193340139
5.268995854364778
5.226598875046941
6.110839111574139
2.9002920224219833
6.334687033838763
3.6486766364349266
5.275264621020357
0.9805874649916655
3.4635830260588913
6.2570739764607675
5.976262940257337
5.696965653646368
6.870999868937898
5.2456568871005285
3.942432031713868
4.907543444851059
7.898483131791894
5.533420740572723
3.655433187279434
4.952121168467598
3.857920139505565
5.783170309751166
6.070269098948918
5.71291659071108
5.437047689354009
9.153644100682538
1.323402703503743
4.121906280960647
5.044740525954847
5.124055181897927
5.470019752103373
7.609006939889278
7.8690448401300435
2.8498089854760407
3.713497689308946
3.9608390751579003
4.908586039040885
5.913851383183046
4.613227166622709
2.323063549945771
3.7371234277133314
6.178387560602815
4.47535665402678
6.798605439757702
3.4365255815024724
7.301875336381184
4.841560783081709
4.606896894981091
7.352050073405167
2.614368930512445
2.2739936667561205
5.0717548644983586
4.13361395639919
6.250676288596716
6.738819809936823
3.144100880781303
3.9542360942240027
5.340092029131111
5.947606806444797
5.0134077405197175
5.760103636228205
7.486342561857696
8.87188562564425
5.560266868245157
4.88465608269555
5.895493315607553
5.521646122383986
2.058835232726981
9.043296087430457
9.375872315676178
5.626985057390039
2.3506683254100493
4.044699468949713
4.622513215728964
3.7968879977770946
5.184241844828029
4.371988072710573
6.054798536771692
0.9215104856300474
3.599822181642272
1.208548063295519
7.024230233351269
5.264553843140989
2.33268297668424
4.871517132351269
5.947545485579333
6.919327792068653
0.9711972996801773
6.34121209218296
3.2935096054268564
7.272686475332402
5.717977954128224
3.983208366966554
4.193800632156936
6.5986100093310025
1.0498609338295524
6.55266126807544
5.171337785043689
5.540373747286253
6.0966749472424135
7.074144659576834
1.0058380832945948
4.940407772769758
4.153806163768166
5.365780478189354
5.1290033525172705
4.734842386895079
5.428350072838713
5.070625553669389
5.051153387487847
4.566237982022224
4.942773727317763
4.587676154206086
4.925882121698982
4.705602606802479
5.050373635970836
5.284695790140527
4.784319372511531
5.0706540336674575
6.139256023778775
5.531559615575859
5.119979637308751
5.133441414575806
6.026064429738352
5.2120106812658396
4.789630113233103
5.346513752616774
5.820209675749932
6.116450483836364
3.886078160057892
4.917863408165158
5.023002564818449
4.732244098306283
7.66952382583726
1.6513825933563853
9.229712616765061
6.04964743236689
5.202921600252638
4.541914226007277
2.6246818443198823
6.915138993981971
5.279572471604074
5.413897786487747
0.9999045533613522
5.708848737250722
5.950487762154154
4.029947291889946
4.987792803554967
4.157883939806256
5.2236641736407865
7.336984256880388
5.674974640901257
5.209477102562352
7.754032111826928
3.0330620900507097
3.6085483780651813
4.78292733630987
5.656224669100896
7.428083813006278
7.968244382595461
3.7078610662831535
2.1040859066789883
3.1114599706826205
2.436473158969532
4.039061018215021
3.4054512747042294
2.4735554694978474
6.558733062201099
7.437391529454055
4.618642271761853
5.880657297673567
4.457349386925398
2.4024858229304566
3.148159460041789
4.463545492676609
5.981406531282117
4.484752589955929
6.393453341601644
6.587653922061969
4.843806219713211
5.091188860545198
9.17118756159236
4.8388830693943605
4.142774027155057
8.641147733035533
4.183023076424938
4.0652278064422
5.702137629237064
4.451623794096066
5.876268057511379
5.9403525502406795
4.754853618511782
3.087799770459418
4.219687876782327
3.7266170418207163
6.547785801910477
2.3047096666544356
5.742780013821115
0.8911988911966087
1.936806850873536
5.565520328937931
7.972377596729406
6.3196907908110065
4.446502684519295
4.024247090551749
4.9044136851371825
3.837576690126796
6.613059859957007
5.982731065563758
3.559126275523892
4.456618867879528
5.2452024602070075
8.21463616184819
1.8643214495103309
4.421618186790525
4.508919706859172
6.481170272862126
5.232520352059796
7.508463833410949
5.804061361991938
5.874996012034866
5.716191411008462
4.2129035954977105
4.074971537051627
6.5604376604285255
4.76288037382221
4.4861592995776345
5.430550641293593
5.125275838684584
4.517258822926646
4.0476037147937705
4.761114420236038
6.851829262700635
5.3763234693062945
9.28134807377001
6.1720324056423825
4.310786350733322
5.036419181270746
4.8743923018412945
7.701355870183741
5.798582696330743
4.074301656372443
0.9003780916818157
4.889702235525859
4.0146238604084825
7.542751490404078
3.3644809013772417
5.525980982175035
5.810601106188276
4.1339730402936485
7.813819695311291
6.860302669807203
5.369527813710681
6.93665272505114
5.01701178284109
2.8639838916141653
4.926879885922101
6.298447836193883
4.924894838136014
4.824030708399611
6.490072382110887
5.600372602477414
7.843234097964718
5.40520796933971
4.6630402851833175
5.372480406891506
5.381859715517704
4.734190945536111
5.272431309010897
5.525763775384988
5.6927024264770925
4.062197319108745
6.379528286052206
7.800268620309538
4.075907879181451
6.012353457377418
2.6273556761175305
4.178240444770328
3.1142519426592794
4.760295493640388
4.979386287043239
6.070916535617743
5.892425142923136
3.2852419995905184
3.5787538239677623
4.279800397711013
4.312266852316744
4.847516140370342
4.850105883711524
8.113212167719205
6.459283394919071
2.8811613922041692
0.9592969622824438
9.01135469475602
8.261741156789274
3.7568721977010515
9.091223976515224
3.303019855322602
4.793773888448875
4.512843465859634
2.2846940314053854
5.866206651344245
6.172250389100854
5.03988782969707
2.2116133042583233
8.225763241693803
5.489151423723393
5.401962885768049
3.0714026531258205
0.7965242669050063
6.881015450758672
6.15908240096995
4.073775427250432
2.9854132509947475
7.10597830658089
4.498464996052131
7.681944772609038
0.7906718239205474
3.9162171687166913
1.9596266656516361
4.697309814365446
5.6556144674178155
2.1850377300471613
6.450233741937249
4.799515878354822
5.29908429577381
5.213735863120661
4.000392435600148
6.906365217630532
6.451257129662212
7.208222456395711
4.702312187243076
6.732691406413187
7.2154952936867245
7.686214134835867
5.332109482067932
5.311476710291198
4.274412640617235
4.314718295913038
3.037464829561063
2.3815067578785354
5.414434265109174
5.01785717883445
5.827351507960841
5.020034505243517
6.44928990550467
6.2254708354123585
3.36076062034494
3.177545892380525
3.112358611250984
4.330246163800415
4.075043492936408
4.0922295578924945
5.568615308996748
6.2980528146636265
4.278125474150283
11.484842248220332
6.658264912161456
3.73109863875977
6.441194397853238
6.516601955121056
3.2809158803817025
5.081904155440155
7.0875946620306465
7.104370999157642
4.5282995452926
7.141372249109559
9.173954849610833
6.240382195477553
6.285769418253407
4.352493942660454
5.079509581564373
1.842401588306292
3.972392224632569
4.595092633474131
5.523137179654569