# vtk DataFile Version 1.0
2D Simulation C++
ASCII
DATASET UNSTRUCTURED_GRID
FIELD FieldData 1
NODES 1 2 int
14521 28612

POINTS 14521 double
0.0 0.0 0.0
0.0 10.0 0.0
32.5 10.0 0.0
32.5 5.0 0.0
32.5 0.0 0.0
13.0 5.0 0.0
0.0 0.2941176470586055 0.0
0.0 0.5882352941171234 0.0
0.0 0.8823529411757415 0.0
0.0 1.176470588234357 0.0
0.0 1.470588235292488 0.0
0.0 1.764705882350453 0.0
0.0 2.058823529408418 0.0
0.0 2.352941176466384 0.0
0.0 2.647058823524349 0.0
0.0 2.941176470582313 0.0
0.0 3.235294117640277 0.0
0.0 3.529411764698242 0.0
0.0 3.823529411756206 0.0
0.0 4.117647058814589 0.0
0.0 4.41176470587386 0.0
0.0 4.70588235293313 0.0
0.0 4.999999999992401 0.0
0.0 5.294117647051672 0.0
0.0 5.588235294110941 0.0
0.0 5.882352941170211 0.0
0.0 6.176470588229482 0.0
0.0 6.470588235288753 0.0
0.0 6.764705882348023 0.0
0.0 7.058823529407294 0.0
0.0 7.352941176466564 0.0
0.0 7.647058823525834 0.0
0.0 7.941176470585106 0.0
0.0 8.235294117644376 0.0
0.0 8.529411764703648 0.0
0.0 8.823529411762916 0.0
0.0 9.117647058822186 0.0
0.0 9.411764705881458 0.0
0.0 9.70588235294073 0.0
0.2981651376147483 10.0 0.0
0.5963302752294813 10.0 0.0
0.8944954128441965 10.0 0.0
1.192660550458881 10.0 0.0
1.490825688073508 10.0 0.0
1.788990825688125 10.0 0.0
2.087155963302878 10.0 0.0
2.385321100917831 10.0 0.0
2.683486238532852 10.0 0.0
2.981651376147873 10.0 0.0
3.279816513762893 10.0 0.0
3.577981651377914 10.0 0.0
3.876146788992889 10.0 0.0
4.174311926607628 10.0 0.0
4.472477064222242 10.0 0.0
4.770642201836855 10.0 0.0
5.068807339451469 10.0 0.0
5.366972477066083 10.0 0.0
5.665137614680697 10.0 0.0
5.963302752295311 10.0 0.0
6.261467889909925 10.0 0.0
6.559633027524539 10.0 0.0
6.857798165139153 10.0 0.0
7.155963302753767 10.0 0.0
7.454128440368381 10.0 0.0
7.752293577982995 10.0 0.0
8.050458715597609 10.0 0.0
8.348623853212223 10.0 0.0
8.646788990826836 10.0 0.0
8.94495412844145 10.0 0.0
9.243119266056064 10.0 0.0
9.541284403670678 10.0 0.0
9.83944954128529 10.0 0.0
10.1376146788999 10.0 0.0
10.43577981651452 10.0 0.0
10.73394495412913 10.0 0.0
11.03211009174375 10.0 0.0
11.33027522935836 10.0 0.0
11.62844036697297 10.0 0.0
11.92660550458759 10.0 0.0
12.2247706422022 10.0 0.0
12.52293577981682 10.0 0.0
12.82110091743143 10.0 0.0
13.11926605504605 10.0 0.0
13.41743119266066 10.0 0.0
13.71559633027527 10.0 0.0
14.01376146788989 10.0 0.0
14.3119266055045 10.0 0.0
14.61009174311912 10.0 0.0
14.90825688073373 10.0 0.0
15.20642201834834 10.0 0.0
15.50458715596296 10.0 0.0
15.80275229357757 10.0 0.0
16.10091743119218 10.0 0.0
16.3990825688068 10.0 0.0
16.69724770642141 10.0 0.0
16.99541284403603 10.0 0.0
17.29357798165064 10.0 0.0
17.59174311926525 10.0 0.0
17.88990825687987 10.0 0.0
18.18807339449448 10.0 0.0
18.48623853210909 10.0 0.0
18.78440366972371 10.0 0.0
19.08256880733832 10.0 0.0
19.38073394495293 10.0 0.0
19.67889908256754 10.0 0.0
19.97706422018216 10.0 0.0
20.27522935779677 10.0 0.0
20.57339449541138 10.0 0.0
20.87155963302599 10.0 0.0
21.1697247706406 10.0 0.0
21.46788990825521 10.0 0.0
21.76605504586983 10.0 0.0
22.06422018348444 10.0 0.0
22.36238532109905 10.0 0.0
22.66055045871366 10.0 0.0
22.95871559632827 10.0 0.0
23.25688073394288 10.0 0.0
23.55504587155749 10.0 0.0
23.85321100917211 10.0 0.0
24.15137614678672 10.0 0.0
24.44954128440133 10.0 0.0
24.74770642201594 10.0 0.0
25.04587155963055 10.0 0.0
25.34403669724516 10.0 0.0
25.64220183485978 10.0 0.0
25.94036697247438 10.0 0.0
26.238532110089 10.0 0.0
26.5366972477036 10.0 0.0
26.83486238531822 10.0 0.0
27.13302752293283 10.0 0.0
27.43119266054744 10.0 0.0
27.72935779816205 10.0 0.0
28.02752293577667 10.0 0.0
28.32568807339127 10.0 0.0
28.62385321100589 10.0 0.0
28.9220183486205 10.0 0.0
29.22018348623511 10.0 0.0
29.51834862384972 10.0 0.0
29.81651376146434 10.0 0.0
30.11467889907894 10.0 0.0
30.41284403669356 10.0 0.0
30.71100917430817 10.0 0.0
31.00917431192278 10.0 0.0
31.30733944953739 10.0 0.0
31.605504587152 10.0 0.0
31.90366972476661 10.0 0.0
32.20183486238237 10.0 0.0
32.5 9.704670932249275 0.0
32.5 9.40934186449855 0.0
32.5 9.119724688466377 0.0
32.5 8.843554074514566 0.0
32.5 8.580208926166412 0.0
32.5 8.329033426013027 0.0
32.5 8.089398249298329 0.0
32.5 7.860698623560229 0.0
32.5 7.642352095094644 0.0
32.5 7.433796399747433 0.0
32.5 7.234487076551145 0.0
32.5 7.043894845848946 0.0
32.5 6.861502922847221 0.0
32.5 6.686804005096128 0.0
32.5 6.519296609419547 0.0
32.5 6.358481287304047 0.0
32.5 6.203856309284161 0.0
32.5 6.054912477284352 0.0
32.5 5.911127605902981 0.0
32.5 5.771960797335053 0.0
32.5 5.636846224632778 0.0
32.5 5.505187804642507 0.0
32.5 5.376355306795872 0.0
32.5 5.249683025653217 0.0
32.5 5.124472555996909 0.0
32.5 4.87552744400309 0.0
32.5 4.750316974346781 0.0
32.5 4.623644693204131 0.0
32.5 4.494812195357495 0.0
32.5 4.363153775367226 0.0
32.5 4.228039202664948 0.0
32.5 4.088872394097016 0.0
32.5 3.945087522715645 0.0
32.5 3.796143690715835 0.0
32.5 3.641518712695949 0.0
32.5 3.480703390580449 0.0
32.5 3.313195994903866 0.0
32.5 3.138497077152773 0.0
32.5 2.956105154151047 0.0
32.5 2.765512923448848 0.0
32.5 2.566203600252559 0.0
32.5 2.357647904905347 0.0
32.5 2.139301376439767 0.0
32.5 1.910601750701668 0.0
32.5 1.670966573986973 0.0
32.5 1.419791073833593 0.0
32.5 1.156445925485432 0.0
32.5 0.8802753115336266 0.0
32.5 0.5906581355014486 0.0
32.5 0.2953290677507248 0.0
32.20183486238238 0.0 0.0
31.90366972476663 0.0 0.0
31.60550458715203 0.0 0.0
31.30733944953742 0.0 0.0
31.00917431192282 0.0 0.0
30.71100917430822 0.0 0.0
30.41284403669362 0.0 0.0
30.11467889907901 0.0 0.0
29.81651376146441 0.0 0.0
29.51834862384981 0.0 0.0
29.2201834862352 0.0 0.0
28.9220183486206 0.0 0.0
28.623853211006 0.0 0.0
28.3256880733914 0.0 0.0
28.02752293577679 0.0 0.0
27.72935779816219 0.0 0.0
27.43119266054759 0.0 0.0
27.13302752293298 0.0 0.0
26.83486238531838 0.0 0.0
26.53669724770378 0.0 0.0
26.23853211008917 0.0 0.0
25.94036697247457 0.0 0.0
25.64220183485996 0.0 0.0
25.34403669724536 0.0 0.0
25.04587155963076 0.0 0.0
24.74770642201615 0.0 0.0
24.44954128440155 0.0 0.0
24.15137614678694 0.0 0.0
23.85321100917234 0.0 0.0
23.55504587155774 0.0 0.0
23.25688073394313 0.0 0.0
22.95871559632853 0.0 0.0
22.66055045871393 0.0 0.0
22.36238532109932 0.0 0.0
22.06422018348472 0.0 0.0
21.76605504587012 0.0 0.0
21.46788990825551 0.0 0.0
21.16972477064091 0.0 0.0
20.87155963302631 0.0 0.0
20.5733944954117 0.0 0.0
20.2752293577971 0.0 0.0
19.9770642201825 0.0 0.0
19.6788990825679 0.0 0.0
19.38073394495329 0.0 0.0
19.08256880733868 0.0 0.0
18.78440366972408 0.0 0.0
18.48623853210948 0.0 0.0
18.18807339449488 0.0 0.0
17.88990825688027 0.0 0.0
17.59174311926567 0.0 0.0
17.29357798165107 0.0 0.0
16.99541284403646 0.0 0.0
16.69724770642186 0.0 0.0
16.39908256880725 0.0 0.0
16.10091743119265 0.0 0.0
15.80275229357805 0.0 0.0
15.50458715596345 0.0 0.0
15.20642201834884 0.0 0.0
14.90825688073424 0.0 0.0
14.61009174311963 0.0 0.0
14.31192660550503 0.0 0.0
14.01376146789042 0.0 0.0
13.71559633027582 0.0 0.0
13.41743119266122 0.0 0.0
13.11926605504662 0.0 0.0
12.82110091743201 0.0 0.0
12.52293577981741 0.0 0.0
12.22477064220281 0.0 0.0
11.92660550458821 0.0 0.0
11.62844036697361 0.0 0.0
11.33027522935901 0.0 0.0
11.03211009174441 0.0 0.0
10.7339449541298 0.0 0.0
10.4357798165152 0.0 0.0
10.1376146789006 0.0 0.0
9.839449541286001 0.0 0.0
9.541284403671398 0.0 0.0
9.243119266056798 0.0 0.0
8.944954128442202 0.0 0.0
8.646788990827599 0.0 0.0
8.348623853212999 0.0 0.0
8.050458715598396 0.0 0.0
7.752293577983796 0.0 0.0
7.454128440369193 0.0 0.0
7.155963302754593 0.0 0.0
6.85779816513999 0.0 0.0
6.559633027525393 0.0 0.0
6.26146788991079 0.0 0.0
5.963302752296187 0.0 0.0
5.665137614681587 0.0 0.0
5.366972477066984 0.0 0.0
5.068807339452384 0.0 0.0
4.770642201837781 0.0 0.0
4.472477064223181 0.0 0.0
4.174311926608581 0.0 0.0
3.876146788993982 0.0 0.0
3.577981651379378 0.0 0.0
3.279816513764779 0.0 0.0
2.981651376150179 0.0 0.0
2.683486238535576 0.0 0.0
2.385321100920976 0.0 0.0
2.087155963306376 0.0 0.0
1.788990825691776 0.0 0.0
1.490825688077173 0.0 0.0
1.19266055046257 0.0 0.0
0.8944954128479665 0.0 0.0
0.5963302752333668 0.0 0.0
0.298165137617616 0.0 0.0
12.99937846060976 5.024922942824306 0.0
12.99751538768329 5.049783923292 0.0
12.99441541311343 5.074521133082333 0.0
12.9900862439254 5.099073071594094 0.0
12.98453864311594 5.123378698839655 0.0
12.97778640289475 5.1473775872 0.0
12.96984631039484 5.171010071657642 0.0
12.96073810593722 5.194217398132568 0.0
12.95048443395334 5.216941869554349 0.0
12.93911078668734 5.239126989306574 0.0
12.92664544081843 5.260717601685897 0.0
12.91311938716051 5.281660029028131 0.0
12.89856625361406 5.301902205159314 0.0
12.88302222156224 5.321393804839989 0.0
12.86652593591789 5.340086368882249 0.0
12.84911840904608 5.357933424626895 0.0
12.83084291880141 5.374890601481234 0.0
12.81174490093244 5.390915741231562 0.0
12.79187183612062 5.405969002855607 0.0
12.77127313193625 5.42001296157321 0.0
12.75000000000368 5.433012701890096 0.0
12.72810532868064 5.444935904403652 0.0
12.70564355156948 5.455752926153954 0.0
12.68267051218724 5.465436874320517 0.0
12.65924332512987 5.473963673082213 0.0
12.63542023407562 5.481312123473847 0.0
12.6112604669825 5.487463956089922 0.0
12.58682408883806 5.492403876505294 0.0
12.5621718523285 5.49611960329949 0.0
12.53736504679821 5.498601898590215 0.0
12.512465345874 5.499844591000285 0.0
12.48753465413557 5.499844591000523 0.0
12.46263495321133 5.49860189859093 0.0
12.43782814768099 5.49611960330068 0.0
12.41317591117137 5.492403876506956 0.0
12.38873953302684 5.487463956092052 0.0
12.36457976593359 5.48131212347644 0.0
12.34075667487921 5.473963673085262 0.0
12.31732948782167 5.465436874324014 0.0
12.29435644843925 5.455752926157889 0.0
12.27189467132783 5.444935904407994 0.0
12.25000000000449 5.433012701894812 0.0
12.22872686807166 5.420012961578315 0.0
12.20812816388707 5.405969002861141 0.0
12.18825509907505 5.390915741237538 0.0
12.1691570812058 5.374890601487596 0.0
12.15088159096094 5.357933424633736 0.0
[...]
POINT_DATA 14521
SCALARS Psi double
LOOKUP_TABLE default
0.0
10.0
9.745856973657968
4.994914758725032
0.0
5.0
0.2941176470586055
0.5882352941171234
0.8823529411757415
1.176470588234357
1.470588235292488
1.764705882350453
2.058823529408418
2.352941176466384
2.647058823524349
2.9411764705823136
3.235294117640277
3.5294117646982426
3.823529411756206
4.117647058814589
4.41176470587386
4.70588235293313
4.999999999992401
5.294117647051672
5.588235294110941
5.882352941170211
6.176470588229482
6.470588235288753
6.764705882348023
7.058823529407294
7.352941176466565
7.647058823525834
7.9411764705851065
8.235294117644376
8.529411764703648
8.823529411762916
9.117647058822186
9.411764705881458
9.70588235294073
10.0
10.0
10.0
10.0
10.0
10.0
10.0
10.0
10.0
10.0
10.0
10.0
10.0
10.0
10.0
10.0
10.0
10.0
10.0
10.0
10.0
10.0
10.0
10.0
10.0
10.0
10.0
10.0
10.0
10.0
10.0
10.0
10.0
10.0
10.0
10.0
10.0
10.0
10.0
10.0
10.0
10.0
10.0
10.0
10.0
10.0
10.0
10.0
10.0
10.0
10.0
10.0
10.0
10.0
10.0
10.0
10.0
10.0
10.0
10.0
10.0
10.0
10.0
10.0
10.0
10.0
10.0
10.0
10.0
10.0
10.0
10.0
10.0
10.0
10.0
10.0
10.0
10.0
10.0
10.0
10.0
10.0
10.0
10.0
10.0
10.0
10.0
10.0
10.0
10.0
10.0
10.0
10.0
10.0
10.0
10.0
10.0
10.0
10.0
10.0
10.0
10.0
10.0
10.0
10.0
10.0
10.0
10.0
9.54539404339945
9.333787129936068
9.090821905137899
8.81973740302999
8.558703278909755
8.310406025604687
8.073212522000084
7.846312591133237
7.629329245585323
7.421897884294845
7.223537396230323
7.033739932259633
6.8520301300984
6.6779192508298255
6.510922087606404
6.350556438821162
6.196331727525325
6.047752239501475
5.904298239593324
5.765435141702414
5.630600252639026
5.499201741312142
5.370612638339999
5.24417012326909
5.119177858225104
4.8706439987367665
4.7456289122720055
4.619147875902598
4.490503930149425
4.359032220696464
4.22410312896145
4.085121964482079
3.941522599683268
3.792764881315309
3.638327834130973
3.4777025658146123
3.3103878588417177
3.1358840622292288
2.953691290146623
2.7633021474697363
2.5642005784050377
2.3558565185999987
2.1377259629818335
1.9092446648320955
1.6698345465219149
1.418912195097687
1.1560486277603506
0.8810870951462342
0.5926780879651118
0.29695777925319794
0.0
0.0
0.0
0.0
0.0
0.0
0.0
0.0
0.0
0.0
0.0
0.0
0.0
0.0
0.0
0.0
0.0
0.0
0.0
0.0
0.0
0.0
0.0
0.0
0.0
0.0
0.0
0.0
0.0
0.0
0.0
0.0
0.0
0.0
0.0
0.0
0.0
0.0
0.0
0.0
0.0
0.0
0.0
0.0
0.0
0.0
0.0
0.0
0.0
0.0
0.0
0.0
0.0
0.0
0.0
0.0
0.0
0.0
0.0
0.0
0.0
0.0
0.0
0.0
0.0
0.0
0.0
0.0
0.0
0.0
0.0
0.0
0.0
0.0
0.0
0.0
0.0
0.0
0.0
0.0
0.0
0.0
0.0
0.0
0.0
0.0
0.0
0.0
0.0
0.0
0.0
0.0
0.0
0.0
0.0
0.0
0.0
0.0
0.0
0.0
0.0
0.0
0.0
0.0
0.0
0.0
0.0
0.0
5.0
5.0
5.0
5.0
5.0
5.0
5.0
5.0
5.0
5.0
5.0
5.0
5.0
5.0
5.0
5.0
5.0
5.0
5.0
5.0
5.0
5.0
5.0
5.0
5.0
5.0
5.0
5.0
5.0
5.0
5.0
5.0
5.0
5.0
5.0
5.0
5.0
5.0
5.0
5.0
5.0
5.0
5.0
5.0
5.0
5.0
5.0
5.0
5.0
5.0
5.0
5.0
5.0
5.0
5.0
5.0
5.0
5.0
5.0
5.0
5.0
5.0
5.0
5.0
5.0
5.0
5.0
5.0
5.0
5.0
5.0
5.0
5.0
5.0
5.0
5.0
5.0
5.0
5.0
5.0
5.0
5.0
5.0
5.0
5.0
5.0
5.0
5.0
5.0
5.0
5.0
5.0
5.0
5.0
5.0
5.0
5.0
5.0
5.0
5.0
5.0
5.0
5.0
5.0
5.0
5.0
5.0
5.0
5.0
5.0
5.0
5.0
5.0
5.0
5.0
5.0
5.0
5.0
5.0
5.0
5.0
5.0
5.0
5.0
5.0
5.133011995555499
6.879351830791969
3.279865365242368
4.900295621042407
2.500793417979401
2.643498471894503
4.398303835092673
6.849346866678291
7.520868544547172
4.935919361870677
4.851988680559313
5.063182533400123
6.132913417776602
3.959536777038991
6.869380375960608
5.058086400265023
5.476090085710583
3.3795648018566
3.923713148433593
4.90639993768513
6.856321580568721
4.422557466475824
6.907415867537127
4.423829470750868
4.731785518675309
6.365687864036134
3.869021895575964
7.228229733837085
6.041780599660391
5.7657914254049105
7.342649085301524
2.66060837822319
2.9121374438792933
2.6280673497279325
5.71631740010321
2.47050471528387
4.116151455077409
3.1731648735905815
4.495795859837332
4.2098423794528435
4.517720737437465
4.567914416685615
7.549001296720317
5.62281618978102
5.644665171966475
5.226625127827804
6.273990588889493
5.606531639122639
5.72705207644442
3.3940775199065083
6.9148310127723365
4.340947989922115
5.197601609278676
4.491540270520755
6.025491142260029
4.416518166011199
5.733954954565053
7.308632286869095
5.817881906800093
4.529690843144689
2.290835340362825
3.187564780482142
5.669808536494751
3.7543107382576415
4.926819475996019
4.418136223118854
2.7049392475967755
5.610690571298108
2.851539432402364
3.65921237182723
5.54655682182216
5.405054994086818
4.408163027210671
4.863148465613058
7.415787853433943
4.494920919958279
3.6487926376590702
5.429219680794828
2.323400321426479
5.4267344924303815
5.341123310607666
6.2155446831107675
6.040070898724711
5.409336097323354
3.9856011102688766
6.324305451141743
5.751368974316687
4.812735442886171
4.541763270983725
1.9939375409239686
3.318495241097995
4.564711649042067
2.620976592913976
6.759220596291281
5.191563350646642
6.111028299602132
5.055880327063144
3.596328551637108
4.336013344456866
4.258037818448853
6.856334438405313
7.348067080670875
5.601387274650539
6.600504947125894
8.16724126130767
4.94219083040539
3.494381465087193
8.363395599888133
1.7130670255262377
5.202963993501386
4.920643242211263
8.36193642127387
5.14223495871846
5.25156400597771
4.779094371935655
5.033206800391446
4.594379159761998
4.886226798605217
5.975893822641257
5.035334936600928
7.764581638557097
3.5342136164152476
4.897088801365061
3.6154876615751834
5.879790850432983
3.6637099021380193
5.37603404064134
5.381154307561068
1.7060074205044673
8.300057727515899
1.620318567757094
8.199739277918727
7.827398990847894
2.1254661780293684
5.2145553292222155
5.167302449292291
4.347589191160901
3.666601177362279
8.370740654316378
8.344418660931717
3.751159125921521
1.6130696439938277
5.062670975771332
4.18703689532637
4.729140007154894
4.523310923651382
1.5774177351443663
4.4907672693743566
3.747272053871071
5.020733204031042
8.31142304269418
5.1403174393764735
2.8645430680993593
5.4956699189526885
4.188928694158917
4.706230795563689
5.275112973957
8.129503412378952
3.4734434778729724
4.162253247124628
5.133153845136953
1.5419359879331611
4.472217034557809
4.92001048672796
6.593187947987179
3.5913258474539305
5.8931638797714285
6.622158482640807
8.50380559552999
3.7780550223517175
4.4153868585946645
6.136283157134018
6.06966293279778
7.238628186367995
6.131444213977295
4.311638456805867
1.5011154165822247
2.672514160341267
7.714457893588873
4.469054067836091
5.223947768786247
1.451264417585357
5.810558644686215
3.5055337252776897
4.227166282748843
4.963875884600734
6.072660129546138
4.279772315677928
6.071615608685814
5.584172013793201
6.812107075605771
4.597447533266324
6.203192109067058
3.033099496779986
4.878001384321206
4.913537203926618
4.778788648334819
1.664776192859853
4.39496696699539
6.3330748198388935
5.161670154693038
2.1890488270133313
1.5240560949260145
8.592372529481734
1.37024551128094
7.083688394262187
4.851032120845823
6.578374352464434
8.597816137502427
3.685431604194459
8.338713228527961
5.417413005725853
5.641815777590719
1.5017545193689998
6.573476219873308
6.820915672140908
5.703671229202441
5.144603228080419
2.757388465418489
1.2605905981135213
5.678900925387631
5.064467339763254
7.12723150449287
4.775506846464847
1.227569204655889
5.262358732280383
4.1003516827836854
6.988562381199773
6.065175595021467
1.3261279010628484
5.8413918799393825
3.1167636117059505
2.6252430171366172
3.3206622135144426
5.405538810632436
7.914961685690544
3.2829793388368094
6.323564016807849
4.2791771157877285
4.005819968290185
5.055673909368467
8.778000413881323
5.345487006987986
5.54404674676591
3.568315168746992
4.720206661499606
5.163579991937713
8.710920168760897
4.932092421501264
6.461778568719201
4.852577067629869
6.104444802577105
4.90979406303038
5.414535855965832
4.92450242755168
4.985222081781623
5.102523349389584
5.415843168819869
5.4320590184905155
6.211707809372654
4.140245103861444
3.921167156171577
4.706120322836489
1.2760368992743334
4.0307393831500065
8.528089478109896
7.024067813891536
4.720610526425926
4.891005729781465
2.277873494166599
5.001196647557267
4.958402756816009
4.806879295478871
5.460665136245087
2.429621251987829
1.4639511813717123
3.7566670553305648
3.200462243803517
3.9901091884486455
3.7318326509984074
7.225839751473276
6.5422187580474676
2.7798106863052827
7.660532273882897
2.8185062587031786
2.6823353190961887
5.348307351335906
5.995599208533283
4.869734096124267
7.4316058538781675
1.601510765021885
2.878313230060174
2.7014327161151903
6.142674076102152
4.991179978165713
4.7477656990484665
5.050939936121531
4.330216744469142
2.6592477724460433
3.81701601728663
5.005985953994342
4.603745798836462
4.843816255108571
8.670686048382983
4.999002368747533
6.704963461266974
4.982954303584482
4.894628146400618
8.383589943065644
6.600560836490576
6.2773813024545655
7.73020870767548
6.131197050961866
4.459346953156426
1.3978087495556164
3.803579856284034
3.67326378064177
5.646555758211772
7.42356702183866
5.670332880114183
8.819492656650104
5.709138274356982
5.533095588492464
5.97325426612388
4.448295237941031
7.446920696530226
4.347081544875443
7.7464684446431695
4.80894006758265
2.8378511076935053
5.800410165004678
3.7036182041360965
5.443852002631981
5.199368914201513
8.34266641342557
1.138289057148924
5.995676709616397
4.674112159840049
5.658941802139151
6.084946084965171
5.276657142645731
6.518746627391029
3.98164094471531
3.5777119872893723
2.554089654628013
2.926930856347478
3.136249113376522
4.143309260979339
3.3206088713263635
6.157312731061345
6.018370815447467
5.118118922434019
3.6278455931930123
1.420785149286721
6.726622689399843
1.8300341528034152
5.061867306660969
6.261545067389614
6.380557056778529
3.3390859269192306
6.592037017760489
1.0685506290415852
4.216592295895616
3.9840783071163517
5.174271992642061
4.6087837952850474
5.040614381731252
4.811626704604723
6.989971460601695
8.728407732552295
4.8493394751976115
5.365663872546112
7.346161773536098
5.1695931080317274
3.6147850977743023
4.909815989538974
3.901510623062302
3.8675321844299586
1.7602996716261547
5.5458900855811155
4.912819277404915
5.439475315036503
5.697380659591984
2.181005363029342
4.790705186006062
4.757334372891758
5.127264583431435
4.149193617654441
2.8058535838223513
5.014679689989061
4.747175186921401
5.724849048715783
4.649528844078987
4.864574982955952
4.632672212437493
2.3869359069293123
5.266937509602267
3.962443553580527
4.833533175299736
4.74216151231223
5.09661266748966
8.911710068325576
2.90966792463707
2.8880094274291066
0.963810228619078
5.303201677686821
1.9951145127756371
5.260975012644245
4.601562218892868
3.8519554638568114
7.080021247064208
7.770844441936405
5.547532058723902
7.770713998143718
7.969516463465931
7.426079856772508
4.585490937575516
8.920918066607488
6.031423732993277
4.192879831299805
5.70817188829621
6.347359483968614
4.740374730687606
5.250574348772243
4.709970236929905
5.422698917235576
8.820705461529103
6.116152389435416
4.418946453937468
4.6838200900831275
5.544938662366704
3.9985375427976964
3.0813938172527022
4.700696353995369
6.705002108701478
6.065843077470777
5.47762391930133
4.577692809384127
8.808296788840305
4.13022014308544
4.685484811635111
8.889118816463398
9.01349347699652
5.571534104645005
4.643675699291767
4.008184484680625
4.69676478205793
6.931903888865228
7.332690926061062
3.8663135894184264
9.01194406576146
5.3614177272277885
5.306750003586769
4.353475600992657
5.437682025331716
7.56175923210873
4.5056170812252905
2.1202766603815815
6.658873327180463
5.472251083065666
4.1897765723080065
3.313584697940762
7.3728085337085245
0.9393593053413422
7.7163009790953865
5.708734543076785
5.433627643621282
5.058563536721677
4.435798895558151
2.0933658485550524
6.191073949493468
5.562757825056191
2.6593564213977787
4.840873237140817
8.853629940456639
4.093903280473089
7.740892427796787
3.9850790518289028
3.4675814667830043
4.75918490236443
3.438514664158036
4.05743583665165
5.010404123922776
6.649232027974228
3.2327024756501825
7.2638802035059955
6.685487269692787
6.1918616563453925
4.990718872764513
5.840942562291237
3.7544780834181735
7.359353045085238
2.2325877212634504
6.514085160543273
1.1539694658995094
3.8311236114569085
5.879173530446512
5.675500439161687
5.748152674542081
9.033870577598409
5.779431913390066
4.951236043991054
1.8206129060577785
5.219728801649429
6.342685780898857
9.041729211608953
2.023361596662054
4.051675920273765
7.172842254378711
4.658753290200387
5.292746999725402
0.9433974092558138
4.473427641283414
2.8736784952927024
5.066586754799218
4.926504473736239
4.429564075673673
5.791703627558968
4.778008963911827
3.046384361643842
5.349236363110985
4.8788109697249915
4.893286571276042
3.0372442365432755
5.1264744586018125
5.082339461930554
2.145793267203873
1.7454283101029804
7.481454158196266
4.4071315421409665
2.0448266898520226
0.9671543758443023
3.227935060784198
3.516209670723306
7.8614898281145775
7.491960647323669
3.9813023449800853
5.099070705771042
6.0211330167157175
6.08821861862802
4.0837570780239965
0.9082055041153726
7.872611513236727
4.121152756701396
4.965876816073587
4.793143311146625
4.744773680382295
7.122557304975717
5.159974259720805
8.1751187268429
3.230925679180137
5.2541016822691065
6.030670343281341
4.076802755870378
4.169058580746037
6.035257300239179
3.554264398332532
4.523242150135546
0.9189980604958362
6.810513905133601
5.613448167228103
7.775784059845913
5.2986277285708
5.90537599160774
5.774057447868139
1.4915726745569176
4.583336221076367
4.324879550617152
5.476852829300525
3.2799854174425445
5.454895498470706
9.046798238541404
6.800505517721599
4.894039350476976
7.91796824909607
4.950644146623749
4.069147234409226
9.106422238217133
5.180613585906677
4.074458281002418
4.991875102051852
0.9160403063404464
6.361925112881973
3.2131460413456576
4.049390727370295
3.5185846086804005
6.041311854488659
5.2219460397654744
2.4796121156163786
8.447765046175414
3.3112354188482476
2.2849140136428807
6.480797732224388
4.366276052862383
5.283761559697624
6.080173188330669
2.3565359942349007
0.9026105579433239
0.8919430629482021
5.555694399923469
4.040563682713384
6.653491647255603
0.9042919970637384
6.2753008098733645
9.097306815021842
5.26846525457702
5.155424258403972
4.738623457913449
6.643860054146518
4.214844307921043
3.126288764041221
7.2874226236950825
0.8623657051784951
3.335521031348667
4.386049369880396
5.12402492348264
3.1546587322991426
1.9916010311517747
5.108149312920069
5.385338001488664
5.720408699497316
8.83031239990918
9.086744778429606
6.444055136448508
6.796182849226359
3.1622798905304137
7.878918781472285
6.428713711716113
9.131597381536881
6.297839712814033
9.082799824139926
5.052543501924246
6.386328793112297
2.7911051984703783
5.127885619901517
5.21021546317748
5.180054724285905
0.9572022758087971
4.276797050525664
3.2920159564336413
3.7767551557604966
5.95406707683147
5.661681834544318
7.379623075362446
4.016298824925833
5.265769625526623
7.134788634061462
6.11907108699091
4.150005626373895
6.51029440674207
5.4596728977811795
4.899798579364613
9.12852122480468
2.545078382256721
4.871590645827693
6.027232832757738
5.755229499458232
6.610393340191393
9.09615535570731
4.381542443181325
3.95236310959516
9.155522412676431
5.752252141626382
4.091447372390075
5.094473484193653
4.408142750969554
3.9928098703336348
3.021299508113998
5.102644810183658
3.554476637160635
6.2833784498781
6.749315061345127
3.0824669783841685
8.347620400887125
4.948385572526502
6.395700186848838
5.9329906810967
1.6423010409070082
5.637670905831612
3.1647285968981937
3.9167826281501745
4.336631085877081
6.69802288114037
3.9255193978139444
6.288046229714705
4.967701162594384
7.111508306570886
6.530034308108192
4.477220491416502
5.167275248006064
4.416507419695399
3.5939190780082697
1.990425320300724
5.380747382741463
4.360553485308961
5.567868745850386
3.7296932025102847
2.3107067792465785
5.052313029507156
3.5377732131643795
4.448384133902469
2.240543362179182
4.477329855030719
5.791965061761681
9.159572104241882
5.790686747543306
6.683788006129606
3.118406881923296
5.1194591847748185
4.758310366239801
0.906988421805445
2.1911556858071433
4.413614124184406
1.8745622697809916
7.7853327184231444
4.14035064590638
5.642340000923545
5.250949095766595
4.667397259366552
4.866661898881142
2.2814877368066964
5.044210637065039
7.303664647117253
7.172627761345126
9.154527370148978
8.178920128640545
4.558182309775359
6.459267501632792
4.994754768668275
5.046268699773978
5.715954523304154
4.7070949750792686
0.8517796099124201
4.384149723680361
4.937361235841572
3.4304258554956135
2.162930840638505
4.272430832004198
7.884085475632933
6.026165416706194
4.857690266384663
5.98549828345825
2.1630026706511436
5.753699810196556
0.8699638534772038
5.599572177915334
0.7951820580496172
4.580469275415428
2.328119085053631
0.8580717180581441
4.645898952999092
0.8251473122575115
1.5594511215807862
5.016847777417793
5.629717864280407
4.886989342799151
2.290897902985395
3.917373465160692
4.989585745321492
0.8158802395444813
4.58899473182961
4.281482895747883
5.390219814354039
3.158830294994215
0.8012103282464059
4.319777513429904
1.9474683821092806
4.811000570195705
7.0221790935500294
5.788559178453554
5.3827537968081325
7.927408735462224
6.076258784516966
5.804764481712421
5.122462866853991
3.588751018218498
3.281096552433869
2.997291480847749
4.882572053879134
0.8127522826454437
5.240063461999105
5.301993295786764
4.625162004100912
4.5819950438196
5.966536147617895
9.145974230126626
4.8684351054872215
6.96654886635312
2.1942835486285044
5.320553266273779
7.117472882364401
2.1715330932037116
3.478697233970995
2.2507040546966817
1.563027405165552
3.8192443678206063
4.162604231350343
3.2979118149877857
5.900741153345627
6.816292760809707
5.23098570951458
8.329306430594494
6.405295578823982
9.141026359698687
6.584031499780449
4.647094476674852
5.9411013766530445
2.494250336339001
4.712702163499751
2.912503267899827
5.148288481030658
5.444149615372
5.8009217890635325
4.372107779966576
0.7774857455692791
5.01097400649734
4.196170109341076
7.7453983649005815
4.313221852339305
6.651749251652338
1.8952772007685843
5.67393856140854
6.579542075746116
3.0286188489924664
5.361616786907275
4.977869471831885
2.625089692635125
6.451788852573528
6.997954253484898
5.4067062173159615
9.203208111354703
4.320017299432072
4.644118444202616
4.255145372323109
4.5457867951427176
4.421299366747408
5.710533947856465
5.704589061672146
2.7133594475439504
5.836528867984192
4.120214033559969
4.876718986680685
6.42998985223986
5.092406254378573
2.777338644455213
9.194186293880426
9.09535536877242
5.780726001736096
2.6961317175187305
4.919723729287902
6.292038650813304
5.627334454138416
4.58765989605068
5.075918861527949
3.5454589767286624
5.979978397763783
5.998825554457785
5.374942640449686
3.472300017803125
5.656684608084353
8.170806470591558
7.00201714892587
3.3043527053128123
2.7365459043714933
4.0628964294241525
3.9600682391470095
6.931928872172229
3.875474341635349
6.344235173871363
4.736198802277476
5.036364596950992
4.822927260227664
7.7635451790533665
3.9687243245028463
5.12008016756415
0.8078103505226775
3.141316351714065
6.992451182851529
3.322439526570242
7.729367358233621
4.999069008664105
5.159907027845006
4.909385943497702
4.196338328064645
2.967049049128073
4.62628187657733
4.010475569933166
1.6521772231589968
4.78611252589712
5.951190982154213
6.491034394161281
8.364264482824549
4.4361178071778475
0.8082786040617658
5.2129913229238385
5.139949805877118
6.63962935077956
3.327095404134317
5.513658900407263
3.681667500722139
0.788104950531354
1.8221003488478502
8.055331408593533
4.851957165807384
5.806158979002544
4.6946594865084
4.893032568772295
0.7451319504494593
6.14175390649915
4.989876404025421
4.232395762698255
7.789805809166005
4.15401896246293
4.241272622161666
2.614596063434864
5.379604545461226
8.195209254550473
8.010737518262157
6.2637130195408535
4.604013214015355
8.482114375531822
5.021493862076369
4.602180298925063
8.079498358137274
5.845132688606775
6.007997516760802
3.850710049260702
1.576613287882913
4.267086463317784
4.184035713105892
3.87672881810549
7.255405477822982
5.057643747957536