# vtk DataFile Version 1.0
2D Simulation C++
ASCII
DATASET UNSTRUCTURED_GRID
FIELD FieldData 1
NODES 1 2 int
14521 28612

POINTS 14521 double
0.0 0.0 0.0
0.0 10.0 0.0
32.5 10.0 0.0
32.5 5.0 0.0
32.5 0.0 0.0
13.0 5.0 0.0
0.0 0.2941176470586055 0.0
0.0 0.5882352941171234 0.0
0.0 0.8823529411757415 0.0
0.0 1.176470588234357 0.0
0.0 1.470588235292488 0.0
0.0 1.764705882350453 0.0
0.0 2.058823529408418 0.0
0.0 2.352941176466384 0.0
0.0 2.647058823524349 0.0
0.0 2.941176470582313 0.0
0.0 3.235294117640277 0.0
0.0 3.529411764698242 0.0
0.0 3.823529411756206 0.0
0.0 4.117647058814589 0.0
0.0 4.41176470587386 0.0
0.0 4.70588235293313 0.0
0.0 4.999999999992401 0.0
0.0 5.294117647051672 0.0
0.0 5.588235294110941 0.0
0.0 5.882352941170211 0.0
0.0 6.176470588229482 0.0
0.0 6.470588235288753 0.0
0.0 6.764705882348023 0.0
0.0 7.058823529407294 0.0
0.0 7.352941176466564 0.0
0.0 7.647058823525834 0.0
0.0 7.941176470585106 0.0
0.0 8.235294117644376 0.0
0.0 8.529411764703648 0.0
0.0 8.823529411762916 0.0
0.0 9.117647058822186 0.0
0.0 9.411764705881458 0.0
0.0 9.70588235294073 0.0
0.2981651376147483 10.0 0.0
0.5963302752294813 10.0 0.0
0.8944954128441965 10.0 0.0
1.192660550458881 10.0 0.0
1.490825688073508 10.0 0.0
1.788990825688125 10.0 0.0
2.087155963302878 10.0 0.0
2.385321100917831 10.0 0.0
2.683486238532852 10.0 0.0
2.981651376147873 10.0 0.0
3.279816513762893 10.0 0.0
3.577981651377914 10.0 0.0
3.876146788992889 10.0 0.0
4.174311926607628 10.0 0.0
4.472477064222242 10.0 0.0
4.770642201836855 10.0 0.0
5.068807339451469 10.0 0.0
5.366972477066083 10.0 0.0
5.665137614680697 10.0 0.0
5.963302752295311 10.0 0.0
6.261467889909925 10.0 0.0
6.559633027524539 10.0 0.0
6.857798165139153 10.0 0.0
7.155963302753767 10.0 0.0
7.454128440368381 10.0 0.0
7.752293577982995 10.0 0.0
8.050458715597609 10.0 0.0
8.348623853212223 10.0 0.0
8.646788990826836 10.0 0.0
8.94495412844145 10.0 0.0
9.243119266056064 10.0 0.0
9.541284403670678 10.0 0.0
9.83944954128529 10.0 0.0
10.1376146788999 10.0 0.0
10.43577981651452 10.0 0.0
10.73394495412913 10.0 0.0
11.03211009174375 10.0 0.0
11.33027522935836 10.0 0.0
11.62844036697297 10.0 0.0
11.92660550458759 10.0 0.0
12.2247706422022 10.0 0.0
12.52293577981682 10.0 0.0
12.82110091743143 10.0 0.0
13.11926605504605 10.0 0.0
13.41743119266066 10.0 0.0
13.71559633027527 10.0 0.0
14.01376146788989 10.0 0.0
14.3119266055045 10.0 0.0
14.61009174311912 10.0 0.0
14.90825688073373 10.0 0.0
15.20642201834834 10.0 0.0
15.50458715596296 10.0 0.0
15.80275229357757 10.0 0.0
16.10091743119218 10.0 0.0
16.3990825688068 10.0 0.0
16.69724770642141 10.0 0.0
16.99541284403603 10.0 0.0
17.29357798165064 10.0 0.0
17.59174311926525 10.0 0.0
17.88990825687987 10.0 0.0
18.18807339449448 10.0 0.0
18.48623853210909 10.0 0.0
18.78440366972371 10.0 0.0
19.08256880733832 10.0 0.0
19.38073394495293 10.0 0.0
19.67889908256754 10.0 0.0
19.97706422018216 10.0 0.0
20.27522935779677 10.0 0.0
20.57339449541138 10.0 0.0
20.87155963302599 10.0 0.0
21.1697247706406 10.0 0.0
21.46788990825521 10.0 0.0
21.76605504586983 10.0 0.0
22.06422018348444 10.0 0.0
22.36238532109905 10.0 0.0
22.66055045871366 10.0 0.0
22.95871559632827 10.0 0.0
23.25688073394288 10.0 0.0
23.55504587155749 10.0 0.0
23.85321100917211 10.0 0.0
24.15137614678672 10.0 0.0
24.44954128440133 10.0 0.0
24.74770642201594 10.0 0.0
25.04587155963055 10.0 0.0
25.34403669724516 10.0 0.0
25.64220183485978 10.0 0.0
25.94036697247438 10.0 0.0
26.238532110089 10.0 0.0
26.5366972477036 10.0 0.0
26.83486238531822 10.0 0.0
27.13302752293283 10.0 0.0
27.43119266054744 10.0 0.0
27.72935779816205 10.0 0.0
28.02752293577667 10.0 0.0
28.32568807339127 10.0 0.0
28.62385321100589 10.0 0.0
28.9220183486205 10.0 0.0
29.22018348623511 10.0 0.0
29.51834862384972 10.0 0.0
29.81651376146434 10.0 0.0
30.11467889907894 10.0 0.0
30.41284403669356 10.0 0.0
30.71100917430817 10.0 0.0
31.00917431192278 10.0 0.0
31.30733944953739 10.0 0.0
31.605504587152 10.0 0.0
31.90366972476661 10.0 0.0
32.20183486238237 10.0 0.0
32.5 9.704670932249275 0.0
32.5 9.40934186449855 0.0
32.5 9.119724688466377 0.0
32.5 8.843554074514566 0.0
32.5 8.580208926166412 0.0
32.5 8.329033426013027 0.0
32.5 8.089398249298329 0.0
32.5 7.860698623560229 0.0
32.5 7.642352095094644 0.0
32.5 7.433796399747433 0.0
32.5 7.234487076551145 0.0
32.5 7.043894845848946 0.0
32.5 6.861502922847221 0.0
32.5 6.686804005096128 0.0
32.5 6.519296609419547 0.0
32.5 6.358481287304047 0.0
32.5 6.203856309284161 0.0
32.5 6.054912477284352 0.0
32.5 5.911127605902981 0.0
32.5 5.771960797335053 0.0
32.5 5.636846224632778 0.0
32.5 5.505187804642507 0.0
32.5 5.376355306795872 0.0
32.5 5.249683025653217 0.0
32.5 5.124472555996909 0.0
32.5 4.87552744400309 0.0
32.5 4.750316974346781 0.0
32.5 4.623644693204131 0.0
32.5 4.494812195357495 0.0
32.5 4.363153775367226 0.0
32.5 4.228039202664948 0.0
32.5 4.088872394097016 0.0
32.5 3.945087522715645 0.0
32.5 3.796143690715835 0.0
32.5 3.641518712695949 0.0
32.5 3.480703390580449 0.0
32.5 3.313195994903866 0.0
32.5 3.138497077152773 0.0
32.5 2.956105154151047 0.0
32.5 2.765512923448848 0.0
32.5 2.566203600252559 0.0
32.5 2.357647904905347 0.0
32.5 2.139301376439767 0.0
32.5 1.910601750701668 0.0
32.5 1.670966573986973 0.0
32.5 1.419791073833593 0.0
32.5 1.156445925485432 0.0
32.5 0.8802753115336266 0.0
32.5 0.5906581355014486 0.0
32.5 0.2953290677507248 0.0
32.20183486238238 0.0 0.0
31.90366972476663 0.0 0.0
31.60550458715203 0.0 0.0
31.30733944953742 0.0 0.0
31.00917431192282 0.0 0.0
30.71100917430822 0.0 0.0
30.41284403669362 0.0 0.0
30.11467889907901 0.0 0.0
29.81651376146441 0.0 0.0
29.51834862384981 0.0 0.0
29.2201834862352 0.0 0.0
28.9220183486206 0.0 0.0
28.623853211006 0.0 0.0
28.3256880733914 0.0 0.0
28.02752293577679 0.0 0.0
27.72935779816219 0.0 0.0
27.43119266054759 0.0 0.0
27.13302752293298 0.0 0.0
26.83486238531838 0.0 0.0
26.53669724770378 0.0 0.0
26.23853211008917 0.0 0.0
25.94036697247457 0.0 0.0
25.64220183485996 0.0 0.0
25.34403669724536 0.0 0.0
25.04587155963076 0.0 0.0
24.74770642201615 0.0 0.0
24.44954128440155 0.0 0.0
24.15137614678694 0.0 0.0
23.85321100917234 0.0 0.0
23.55504587155774 0.0 0.0
23.25688073394313 0.0 0.0
22.95871559632853 0.0 0.0
22.66055045871393 0.0 0.0
22.36238532109932 0.0 0.0
22.06422018348472 0.0 0.0
21.76605504587012 0.0 0.0
21.46788990825551 0.0 0.0
21.16972477064091 0.0 0.0
20.87155963302631 0.0 0.0
20.5733944954117 0.0 0.0
20.2752293577971 0.0 0.0
19.9770642201825 0.0 0.0
19.6788990825679 0.0 0.0
19.38073394495329 0.0 0.0
19.08256880733868 0.0 0.0
18.78440366972408 0.0 0.0
18.48623853210948 0.0 0.0
18.18807339449488 0.0 0.0
17.88990825688027 0.0 0.0
17.59174311926567 0.0 0.0
17.29357798165107 0.0 0.0
16.99541284403646 0.0 0.0
16.69724770642186 0.0 0.0
16.39908256880725 0.0 0.0
16.10091743119265 0.0 0.0
15.80275229357805 0.0 0.0
15.50458715596345 0.0 0.0
15.20642201834884 0.0 0.0
14.90825688073424 0.0 0.0
14.61009174311963 0.0 0.0
14.31192660550503 0.0 0.0
14.01376146789042 0.0 0.0
13.71559633027582 0.0 0.0
13.41743119266122 0.0 0.0
13.11926605504662 0.0 0.0
12.82110091743201 0.0 0.0
12.52293577981741 0.0 0.0
12.22477064220281 0.0 0.0
11.92660550458821 0.0 0.0
11.62844036697361 0.0 0.0
11.33027522935901 0.0 0.0
11.03211009174441 0.0 0.0
10.7339449541298 0.0 0.0
10.4357798165152 0.0 0.0
10.1376146789006 0.0 0.0
9.839449541286001 0.0 0.0
9.541284403671398 0.0 0.0
9.243119266056798 0.0 0.0
8.944954128442202 0.0 0.0
8.646788990827599 0.0 0.0
8.348623853212999 0.0 0.0
8.050458715598396 0.0 0.0
7.752293577983796 0.0 0.0
7.454128440369193 0.0 0.0
7.155963302754593 0.0 0.0
6.85779816513999 0.0 0.0
6.559633027525393 0.0 0.0
6.26146788991079 0.0 0.0
5.963302752296187 0.0 0.0
5.665137614681587 0.0 0.0
5.366972477066984 0.0 0.0
5.068807339452384 0.0 0.0
4.770642201837781 0.0 0.0
4.472477064223181 0.0 0.0
4.174311926608581 0.0 0.0
3.876146788993982 0.0 0.0
3.577981651379378 0.0 0.0
3.279816513764779 0.0 0.0
2.981651376150179 0.0 0.0
2.683486238535576 0.0 0.0
2.385321100920976 0.0 0.0
2.087155963306376 0.0 0.0
1.788990825691776 0.0 0.0
1.490825688077173 0.0 0.0
1.19266055046257 0.0 0.0
0.8944954128479665 0.0 0.0
0.5963302752333668 0.0 0.0
0.298165137617616 0.0 0.0
12.99937846060976 5.024922942824306 0.0
12.99751538768329 5.049783923292 0.0
12.99441541311343 5.074521133082333 0.0
12.9900862439254 5.099073071594094 0.0
12.98453864311594 5.123378698839655 0.0
12.97778640289475 5.1473775872 0.0
12.96984631039484 5.171010071657642 0.0
12.96073810593722 5.194217398132568 0.0
12.95048443395334 5.216941869554349 0.0
12.93911078668734 5.239126989306574 0.0
12.92664544081843 5.260717601685897 0.0
12.91311938716051 5.281660029028131 0.0
12.89856625361406 5.301902205159314 0.0
12.88302222156224 5.321393804839989 0.0
12.86652593591789 5.340086368882249 0.0
12.84911840904608 5.357933424626895 0.0
12.83084291880141 5.374890601481234 0.0
12.81174490093244 5.390915741231562 0.0
12.79187183612062 5.405969002855607 0.0
12.77127313193625 5.42001296157321 0.0
12.75000000000368 5.433012701890096 0.0
12.72810532868064 5.444935904403652 0.0
12.70564355156948 5.455752926153954 0.0
12.68267051218724 5.465436874320517 0.0
12.65924332512987 5.473963673082213 0.0
12.63542023407562 5.481312123473847 0.0
12.6112604669825 5.487463956089922 0.0
12.58682408883806 5.492403876505294 0.0
12.5621718523285 5.49611960329949 0.0
12.53736504679821 5.498601898590215 0.0
12.512465345874 5.499844591000285 0.0
12.48753465413557 5.499844591000523 0.0
12.46263495321133 5.49860189859093 0.0
12.43782814768099 5.49611960330068 0.0
12.41317591117137 5.492403876506956 0.0
12.38873953302684 5.487463956092052 0.0
12.36457976593359 5.48131212347644 0.0
12.34075667487921 5.473963673085262 0.0
12.31732948782167 5.465436874324014 0.0
12.29435644843925 5.455752926157889 0.0
12.27189467132783 5.444935904407994 0.0
12.25000000000449 5.433012701894812 0.0
12.22872686807166 5.420012961578315 0.0
12.20812816388707 5.405969002861141 0.0
12.18825509907505 5.390915741237538 0.0
12.1691570812058 5.374890601487596 0.0
12.15088159096094 5.357933424633736 0.0
[...]
POINT_DATA 14521
SCALARS Psi double
LOOKUP_TABLE default
0.0
10.0
9.786738122178104
5.4965480844571655
0.0
5.0
0.2941176470586055
0.5882352941171234
0.8823529411757415
1.176470588234357
1.470588235292488
1.764705882350453
2.058823529408418
2.352941176466384
2.647058823524349
2.9411764705823136
3.235294117640277
3.5294117646982426
3.823529411756206
4.117647058814589
4.41176470587386
4.70588235293313
4.999999999992401
5.294117647051672
5.588235294110941
5.882352941170211
6.176470588229482
6.470588235288753
6.764705882348023
7.058823529407294
7.352941176466565
7.647058823525834
7.9411764705851065
8.235294117644376
8.529411764703648
8.823529411762916
9.117647058822186
9.411764705881458
9.70588235294073
10.0
10.0
10.0
10.0
10.0
10.0
10.0
10.0
10.0
10.0
10.0
10.0
10.0
10.0
10.0
10.0
10.0
10.0
10.0
10.0
10.0
10.0
10.0
10.0
10.0
10.0
10.0
10.0
10.0
10.0
10.0
10.0
10.0
10.0
10.0
10.0
10.0
10.0
10.0
10.0
10.0
10.0
10.0
10.0
10.0
10.0
10.0
10.0
10.0
10.0
10.0
10.0
10.0
10.0
10.0
10.0
10.0
10.0
10.0
10.0
10.0
10.0
10.0
10.0
10.0
10.0
10.0
10.0
10.0
10.0
10.0
10.0
10.0
10.0
10.0
10.0
10.0
10.0
10.0
10.0
10.0
10.0
10.0
10.0
10.0
10.0
10.0
10.0
10.0
10.0
10.0
10.0
10.0
10.0
10.0
10.0
10.0
10.0
10.0
10.0
10.0
10.0
10.0
10.0
10.0
10.0
10.0
10.0
9.596904441295754
9.351450680102367
9.06649547880203
8.782443613248686
8.512226205167272
8.255030247860862
8.010892956919575
7.7802797399111885
7.563653548061076
7.360973312275085
7.172887355927736
6.999608379233109
6.840472158084495
6.694874945766721
6.56168579464294
6.43912859335677
6.325799734157769
6.219824185291521
6.120275685867395
6.025716287035664
5.934652065090473
5.846054289002148
5.758896786873225
5.6722079903721365
5.585107512412648
5.405497899438819
5.3111130979583345
5.212576261775765
5.108976863068744
4.9994436793552
4.883032748113931
4.758647286553292
4.625403510021363
4.482421497894611
4.328598548119584
4.163236828570003
3.9853350867779866
3.794134983973734
3.5894344125782727
3.3701697451579733
3.1367500519173896
2.8878911985569307
2.624397793285297
2.346142709015753
2.0528979226170483
1.74448422407168
1.4205611549950934
1.0810113969028505
0.7241834252800923
0.3608497243588916
0.0
0.0
0.0
0.0
0.0
0.0
0.0
0.0
0.0
0.0
0.0
0.0
0.0
0.0
0.0
0.0
0.0
0.0
0.0
0.0
0.0
0.0
0.0
0.0
0.0
0.0
0.0
0.0
0.0
0.0
0.0
0.0
0.0
0.0
0.0
0.0
0.0
0.0
0.0
0.0
0.0
0.0
0.0
0.0
0.0
0.0
0.0
0.0
0.0
0.0
0.0
0.0
0.0
0.0
0.0
0.0
0.0
0.0
0.0
0.0
0.0
0.0
0.0
0.0
0.0
0.0
0.0
0.0
0.0
0.0
0.0
0.0
0.0
0.0
0.0
0.0
0.0
0.0
0.0
0.0
0.0
0.0
0.0
0.0
0.0
0.0
0.0
0.0
0.0
0.0
0.0
0.0
0.0
0.0
0.0
0.0
0.0
0.0
0.0
0.0
0.0
0.0
0.0
0.0
0.0
0.0
0.0
0.0
5.0
5.0
5.0
5.0
5.0
5.0
5.0
5.0
5.0
5.0
5.0
5.0
5.0
5.0
5.0
5.0
5.0
5.0
5.0
5.0
5.0
5.0
5.0
5.0
5.0
5.0
5.0
5.0
5.0
5.0
5.0
5.0
5.0
5.0
5.0
5.0
5.0
5.0
5.0
5.0
5.0
5.0
5.0
5.0
5.0
5.0
5.0
5.0
5.0
5.0
5.0
5.0
5.0
5.0
5.0
5.0
5.0
5.0
5.0
5.0
5.0
5.0
5.0
5.0
5.0
5.0
5.0
5.0
5.0
5.0
5.0
5.0
5.0
5.0
5.0
5.0
5.0
5.0
5.0
5.0
5.0
5.0
5.0
5.0
5.0
5.0
5.0
5.0
5.0
5.0
5.0
5.0
5.0
5.0
5.0
5.0
5.0
5.0
5.0
5.0
5.0
5.0
5.0
5.0
5.0
5.0
5.0
5.0
5.0
5.0
5.0
5.0
5.0
5.0
5.0
5.0
5.0
5.0
5.0
5.0
5.0
5.0
5.0
5.0
5.0
5.174936668857105
6.3428720537262455
3.828812195168541
4.900432050974329
2.774289199168116
2.733194432797428
4.413748926312029
6.80227483915325
7.257849238327421
4.810149687525089
4.892578925135761
4.96517308654425
5.539507977553464
4.555802588067936
6.715424962381344
5.325489682548366
5.450357315511138
3.578614596060532
4.005578607208717
5.033611775022032
6.547455493183202
4.803381634415269
6.401556677297688
4.630599718032867
4.75336370396724
6.034262415270983
4.252411223477359
6.922294198899444
5.852026906421793
5.684680253170121
7.108459443037465
3.092639084758638
3.2313423506591996
3.0583044642095563
5.229917753623671
2.820803573493917
4.251377516854101
3.6954995980134737
4.9715571347040655
4.452098309668097
4.580993516077114
4.89163103182398
7.172193247938035
5.607467432251766
5.456028121327341
4.9794893354202125
6.2732979525523405
5.140419000660857
5.365447827205795
4.062043107727652
6.858306462088059
4.466109484009374
5.174639665703126
4.909891122874974
5.432993488274434
4.597075156726472
5.420944382202866
6.946691641769311
5.625822700881589
4.675293803316914
2.312373467915909
3.188653481557279
5.930738418015141
4.40679341937335
5.021773921199948
4.777166464760359
3.0611865901687585
5.492712080931339
3.2536574558677342
3.9356580380829
5.345440284205923
5.0692307785969355
4.851551761595127
4.88323663509872
7.406102036970883
5.089865534157653
4.101606111839289
5.488248012190926
2.721059690086996
5.065893762028576
5.280060541156679
5.816120862378103
5.683884622988483
4.941706645554569
4.489846480990245
5.840981377043897
5.737804552563447
5.019632073447095
4.642182249234776
2.1289994537940227
3.36519697800902
4.71290123978773
2.6260715092627858
6.296331035278283
4.989451477342202
6.065544246023653
4.9933885743103845
4.054385331497651
4.336096216181047
4.810284439375265
6.363978368860947
6.919524141698641
5.461095032111187
6.333158114603661
7.969288360049287
5.010492763678314
3.863403152310958
8.161775800730213
2.0834495770997785
5.028360599063897
5.065372745559326
8.124383761819336
5.011385075508596
5.250413518207615
4.824273818307266
5.026488683969302
4.80649812709374
4.737623172824811
5.278914675491873
4.839181302113221
7.7620785009140905
4.153152263643337
5.203194419012745
3.99495023055848
5.42125990628417
4.191602015449048
5.139175584983759
5.2507635620937245
1.9558161596053443
8.238208851653047
1.8745096776591068
7.916679119318088
7.8270718936047405
2.1257924162992117
5.247517321106701
5.031831433337447
4.901846766655173
4.230843139633358
8.278141691223572
8.104873370978893
3.7617420059235744
1.842490315590767
5.542432479453422
4.335589266544148
4.986123521570313
4.9667264766329104
1.7892763443227473
4.5382508941025215
4.442725064699019
5.020531856541333
8.287800245636834
5.52084094514653
3.2817940304225854
4.999314684492279
4.225116821221985
4.934600051556652
5.19169961636697
8.003828647068662
3.6039164144236544
4.580470766456662
5.101904337647932
1.578445083195984
4.98464511908274
5.092390648742109
6.622665330648088
4.003126703181141
5.534032336097127
6.2321431375040985
8.333072278082582
4.39454874031737
4.939856564298665
5.958205283847499
5.846370874094858
6.830677446262091
5.558709433577812
4.676678320777914
1.7241605022278532
3.268003392670394
7.647512182339979
4.587525723899422
5.0277722318167255
1.653466365624399
5.939217442179728
3.897512250487225
4.431104736646989
5.010841094074464
5.529532734707431
4.592588641506841
6.071432914505802
5.285109427376872
6.329322316825845
4.888104888174928
5.537369437794253
3.597530349142226
4.925849021205801
4.934575869518905
4.842867201897168
1.6665919047709017
5.030948063273537
6.329637175056575
4.932052701998473
2.5383891641130965
1.589334224438094
8.371027769136152
1.5948044862971247
6.940357736727061
4.857109115129118
6.495177963523631
8.430211468624945
3.9807144486786177
8.337891874630149
5.174943670281122
5.24273431021597
1.5094660372800996
6.256743503187424
6.4218849201588695
5.983686504769735
4.99942019928804
2.8977776065438756
1.4472428517154718
5.374414465682507
5.271407122428498
6.902776887742079
4.860468443292179
1.350003848827639
5.099584679554821
4.706654427493649
6.967623420056147
6.057581905304251
1.5681028546654887
5.467982575494077
3.403027807645398
2.956859710689832
3.7348874257338287
5.140734697453051
7.580528328419993
3.367245710948284
6.377694468089894
4.756722944988546
4.615655810336612
4.991876533816213
8.65503605181218
4.931759603190276
5.601853557478688
3.59078758671664
4.723538176086312
5.11477344305963
8.509777553076116
4.969350498125695
6.272994654129964
5.1423537927899545
5.9764907431983065
5.149256981050778
5.510580571333971
4.834186583106144
5.12679862944407
4.825137592548606
5.005582529063882
5.411852655581237
5.925877067055416
4.49308529124807
3.9233334196951875
4.6929958172953326
1.4820776951593966
4.2719314693752235
8.523661539452414
6.6601675573233
4.956736534570153
5.007771182661453
2.6496983114536827
5.001235709505985
5.008169449851561
4.8068789200664925
5.173607811048446
2.481223466085141
1.4645769557310426
4.135936636861972
3.200591955647085
4.643423962359801
4.191137103572483
6.959348443957697
5.962679086937722
3.186938591687751
7.344726769170831
3.310834330063751
2.878301554964071
5.337545673080563
5.811912490527404
4.902921269726909
7.10939037898041
1.9665593870602913
3.3347059634942084
2.7122525385288374
5.876210398128991
5.469178822482908
4.886585162048085
5.000355983508239
4.3835347326308
3.003278726966788
4.359441760152616
4.999016072670659
4.966542873248961
4.992503711360364
8.661663968914327
5.0779826869620885
6.153068792510381
4.98790810126847
4.9286127840104905
8.243750525178617
6.177040505762062
5.819549261051475
7.474593910253713
5.626769625610039
4.987538397676967
1.3979166608090319
3.9984849275180117
3.9483076833518513
5.087913254577502
7.030666338399397
5.10173399382036
8.773220836038677
5.629139722836597
4.993600115725052
5.299701942407036
4.492245113299682
7.353474762266012
4.60899045357677
7.393684639002391
4.904557915041726
3.184381824647083
5.13155107683102
3.7637622172550005
5.437875369619965
5.08023509874423
8.130170638880145
1.1532092451619513
5.595392963410242
5.060563842421804
5.4062506645217425
6.050029512866291
5.180041509336156
6.517050711275891
4.480598369177401
3.859224737813055
3.109986219052921
3.3923246489527523
3.5224659879336855
4.237053348369546
3.8920276311028172
5.972669180213211
5.957925706003128
5.109191091116268
3.6333113297738158
1.4242489477732634
6.338426130433994
2.097347960530562
4.9942251976232495
5.756646404201105
6.367063348783499
3.3395186027075843
6.384086414852275
1.234716725705236
4.818392790216913
4.28629113381562
5.029288793692613
4.999184202631164
5.0279712369304
4.947746601969404
6.536342264032134
8.728292087706304
5.264600729712816
5.60795197180512
7.081557775297905
5.076549919109844
4.131653122479881
4.9097952486916085
4.506975020514807
4.178682275909909
1.978952255738634
5.5030931692033445
4.810251658637129
5.165439192157559
5.218331376060661
2.6130002594379897
4.929466514266235
4.763175082071333
4.995232630808605
4.708921144739669
2.838727379411256
5.195573149841512
5.312913623533222
5.470135947778232
4.9341976137914925
4.807927513135808
4.8671748952539335
2.777692714204601
4.981213617683605
4.269074105822527
5.116609139902082
4.776580481136306
5.311732986557213
8.741070071180763
3.408051679253258
2.8904415429019914
1.028054226378039
5.187256671863515
2.2506803211329487
5.244062449122445
4.794892746499198
4.475512390356927
7.079867424700027
7.685137827570648
5.273846411922187
7.7253973851058815
7.706621053060791
7.01158466094469
4.873467352776967
8.7962177191677
5.688053368357089
4.371246893990481
5.541927537086066
5.804894838390105
4.657571039611143
5.226573451364723
4.838765691058503
5.2856697343674615
8.819485954773238
5.764652012667798
4.8578232546294435
5.039269477816474
5.311252823806086
4.532755287161282
3.5133792517707576
5.270639295900456
6.437169958550569
6.2238132719895525
5.16225180354006
4.641959195817219
8.77859873681382
4.797978517777534
5.060261635084161
8.888812065976106
8.960491166425205
5.571293781170096
4.609356957552632
4.529084666735262
5.041951170835483
6.6247523622086195
7.332056337699936
3.898656200772254
8.861783718932209
5.737932290497686
5.716230651663961
4.487945489701805
5.018687640441776
7.176718010063877
4.86704908232956
2.222149525975296
6.122029247212867
5.294981752107587
4.801543205830955
3.9083181905629356
7.367781114362159
1.0688838346160026
7.457864023822617
5.304329609258125
5.0350102475310425
5.003854814320597
4.879824448501533
2.4136686127425486
6.322806702199651
5.818211446196066
3.0786652445321874
4.975016618092198
8.710342861301145
4.260279835601681
7.587067911620472
4.6682681221395494
3.9932766223312806
5.259950448993229
3.960179970579035
4.384204647127582
4.997614596296896
6.308603352116567
3.904364302362789
6.808049617242584
6.1642885850908655
6.100851758518161
5.003734757925345
5.588645197488867
4.3755695571146385
7.358046568902667
2.4286877154647617
6.486089325151644
1.1542461409558933
3.953948015160929
5.764409059219332
5.775908407490877
5.233900590044197
8.924397527723153
5.425474932254735
4.95572626822125
2.0746036616574735
5.390847739724805
5.84433611293442
8.913371656764616
2.05495900451363
4.6858027626033385
7.127805093900825
4.695656862873985
5.291773140015152
1.0842130608258709
4.504979931958036
2.938975420311058
4.9189686562591515
5.002662943347278
4.719572622038052
5.731089254251909
5.0741185840198595
3.1591225772503124
4.996226793026785
4.934522341952392
4.936963318370932
3.054255021687967
5.073149978223775
5.051659078673704
2.5055624482464145
2.0215957716739843
7.0885565197078275
4.988845870429204
2.1096009510839857
1.097394654559274
3.9011185691204524
4.1196968961420355
7.526259476542515
7.337628287546009
3.9823347841726506
5.002003606379817
5.474982789741638
5.658233654086292
4.7121681162300195
1.1081651410660776
7.8556059850118825
4.46940463308409
5.036286470405882
5.016508386340125
5.041864289108141
7.073331166613435
5.084169901153204
7.884182860641311
3.6341428959890925
5.051182429972593
5.756084500369814
4.373620206083094
4.73773066031823
5.749348162617351
4.140657774633047
4.987446754363236
1.0500057163099805
6.341337942027287
5.356555552278721
7.588122738084942
5.668050512389144
5.480336579628896
5.13236326784984
1.7399081342728535
4.657767734953825
4.42424051122471
5.217766475242751
3.751308057581324
5.4030326260560795
8.898404501114468
6.498988226679158
4.895642909900103
7.684047242149301
4.970317877486513
4.4715196844576415
8.995420624865247
5.178733336988969
4.543991407380273
4.95745146645486
1.103208846515047
5.707126249602878
3.7274162729165767
4.370394505627448
4.068067977876161
5.396829820862367
5.22715733772587
2.4803846421455824
8.39618507999921
3.800156938059078
2.5948152194869536
6.133269602676674
4.504717752789899
5.049899495217163
5.574843238810045
2.356627986879543
1.0435256243838855
1.0339446158164076
5.555099802251974
4.097496280575513
6.155205680792669
1.0400342653528802
5.790058162413779
9.033352226389294
5.165719587941886
4.983667524059625
4.689685664612614
6.548132722063556
4.227681774243605
3.4535320746095297
7.254229203928164
0.8915711923133595
3.6799620638513124
4.51198213235835
5.246827027598828
3.5353134252847274
2.266646619398722
4.901339750435574
5.08778638343736
5.266201814851819
8.74034231450708
8.950109500350486
6.443660196653512
6.287060753555135
3.6697082395772798
7.608908467369173
5.859315553288033
9.026548590903625
6.054367979820225
9.08099931164957
4.9367442634760526
6.222967293928294
3.1457707490010085
5.023689238912529
4.925697490510958
4.863883781676193
0.9579936710822123
4.771982260446057
3.711647210125408
4.466079299553862
5.404002782007029
5.596161837186902
7.04489107418771
4.016339028433853
4.9659919242769766
7.065958661539209
5.998100697341895
4.416678289514279
6.244263795222576
5.386463374632361
4.993757741964774
9.041879491596804
2.9334432255970637
4.874895420871336
5.7016271375191625
5.751837473410177
6.6039753709893905
9.085437183305421
5.019253449866723
4.5801450859128705
9.12430659007427
5.393410842507427
4.3256288491542785
5.005377721798459
4.866681195273495
4.401802296939278
3.5529302296931484
4.98690497247312
3.6529443256483805
6.044237113765376
6.4983865932186635
3.456583240831764
8.090083761351817
4.957567780039814
6.340680468826178
6.082200550965485
1.6557191307787336
5.633351273608707
3.3202730164801135
4.1280994508422255
4.759055926197178
6.124066028579006
3.925986643637544
6.273656141042366
5.004017532492311
6.806304953326144
6.407367964300723
4.496050754224791
4.908024437377551
4.8950298178154
3.919239951504258
2.343318808843675
5.76374859516281
4.832312928982243
5.344027927683285
4.379185499627659
2.601202267453783
4.9972448460707
3.7062681974345955
4.5364100793690465
2.5918999072160447
4.732435323545377
5.1609874388477825
9.028145642096318
5.790618902419598
6.700903606198181
3.6017201208074807
5.254120320919448
5.033885935829259
0.9084849149631098
2.6864718116164785
4.417349550206106
2.0737058873473386
7.4931093889941005
4.615821982561411
5.0288997980394425
5.21459540517299
4.641243892704483
4.952873213531417
2.60492836972656
5.025537445391304
7.1992324912806795
6.800635690435862
9.110185320552777
7.980144323971003
4.9102480715913535
6.08629339643494
5.00607997701051
5.000643247417042
5.205979600303159
4.747900185093208
0.8583818249896988
4.585718125806586
5.015882242569833
3.7947323772050074
2.166127454568899
4.534771457229266
7.778612415727
6.055387986343461
4.911024420766408
5.561351785923259
2.655609063912796
5.600669062274232
1.067365864299112
5.513161982532735
0.9091608838237633
4.992215263134848
2.329552891844179
0.8614794577187552
4.869541493171495
0.9415218999767991
1.6859024877582187
4.997183846295265
5.925653451687121
4.950106641175468
2.599464354711159
4.153698538796606
4.990393911290366
0.9421172669298139
4.7057858339919845
4.666473382863995
5.027259730055828
3.781141812994854
0.8175792036210194
4.461213674642015
2.2364911423433695
4.822005106234353
6.534999360882496
5.787114289892687
5.543594656216246
7.9273054722604686
5.676590430791606
5.359756223009623
5.028969896621409
4.004130066710063
3.5310656538591205
3.327757248480552
5.138576343234009
0.8526119148452838
5.2296809476266946
5.379084884326164
4.724348412572243
4.604993732984052
5.418123086227229
9.141934775299012
5.025448402418841
6.9635458996402395
2.5273031672808144
4.943123879320185
6.732662715574749
2.178975022106867
3.478914192738877
2.552070650906089
1.652198490256347
3.974344630143486
4.589646371012858
3.362012178875179
5.7597011216983205
6.8035881714412545
5.14878944266807
8.112299943400522
5.877569667588937
9.140461483329956
6.212485350452738
4.934679710858449
5.726013470511975
2.796539730624447
4.664830134418603
3.5403522642068848
5.148212592641718
5.225832678024648
5.327893910811111
4.80515930300202
0.9051057194923413
5.0061617466192505
4.35181981188653
7.4717296367958985
4.381968953350573
6.243139617884981
2.210054730269604
5.345064106069463
6.325986487493697
3.4265937298850875
5.43719384486181
4.987284899335713
2.8616689595965616
5.994323327123124
6.7284360259630915
5.244806674815332
9.1835452430577
4.814127545018119
4.991586901423328
4.8296370370370285
4.985001312200464
4.688180250362536
5.584974143672256
5.623332502690226
3.3135691973665558
5.7928897496695955
4.70741781123397
4.967148009294685
5.860262348816399
5.001267248332239
3.236536915364005
9.194049323038861
8.965426068215512
5.57566725883227
3.1896053551971777
5.109352405335676
5.884511093341751
5.933319488764012
4.587871350133508
5.041005813800447
4.132819141733949
5.4570476550942315
5.8380803052721735
5.369896898452685
3.5047050113033547
5.631849135237143
8.16305688869956
7.001724280404611
3.892854466932912
3.1888990668102077
4.7413700898558915
4.387989235972228
6.740658816271982
4.195667047888219
5.695766309458504
4.927987213673007
5.526662998686786
4.8538360605044915
7.698271640145177
3.990234361136963
5.460243076893682
0.80792468643515
3.5717256704168086
6.879485861568278
3.635032613341341
7.664405040535053
5.000837652432466
4.911836136390189
4.72856112960293
4.839700654952352
3.148116826190039
5.055670772450024
4.282700148964044
1.9115942474239902
5.341157094361442
5.519181223175634
5.956817650971592
8.108085360025004
5.058090289773188
0.8083158345111201
5.221765928520968
4.953486299256289
6.1408722525961945
3.331135663537256
4.970476706800841
3.757948231177989
0.8550647054762629
2.113381203767301
8.053823794051297
5.139393326019025
5.522243264854306
4.772302866153198
4.837204394249119
0.8305574511301049
6.202146322623788
5.002705711301415
4.2348179225502225
7.468215776727557
4.753710604724979
4.2414624981666735
2.9829223830867204
5.249078224593688
8.128085208690816
7.701733776813872
6.011866015187899
5.113169682476171
8.312459909665948
5.191975206678414
4.8915373899650145
8.078955305199171
5.824292594348192
5.534872652579521
4.310474165494815
1.8198507921501077
4.8750774601153015
4.694403342249581
4.117351770821001
6.9738100225891655
4.896102115473209